 Entering Gaussian System, Link 0=/apl/gaussian/16c02/g16/._.g16
 Initial command:
 /apl/gaussian/16c02/g16/l1.exe "/lwork/users/ux8/8287078.ccpbs1/gaussian/Gau-156447.inp" -scrdir="/lwork/users/ux8/8287078.ccpbs1/gaussian/"
 Default CPUs for threads: 5,6,7,8,9,10,11,12
 Default is to use a total of   8 processors:
                                8 via shared-memory
                                1 via Linda
 Entering Link 1 = /apl/gaussian/16c02/g16/l1.exe PID=    156448.
  
 Copyright (c) 1988-2021, Gaussian, Inc.  All Rights Reserved.
  
 This is part of the Gaussian(R) 16 program.  It is based on
 the Gaussian(R) 09 system (copyright 2009, Gaussian, Inc.),
 the Gaussian(R) 03 system (copyright 2003, Gaussian, Inc.),
 the Gaussian(R) 98 system (copyright 1998, Gaussian, Inc.),
 the Gaussian(R) 94 system (copyright 1995, Gaussian, Inc.),
 the Gaussian 92(TM) system (copyright 1992, Gaussian, Inc.),
 the Gaussian 90(TM) system (copyright 1990, Gaussian, Inc.),
 the Gaussian 88(TM) system (copyright 1988, Gaussian, Inc.),
 the Gaussian 86(TM) system (copyright 1986, Carnegie Mellon
 University), and the Gaussian 82(TM) system (copyright 1983,
 Carnegie Mellon University). Gaussian is a federally registered
 trademark of Gaussian, Inc.
  
 This software contains proprietary and confidential information,
 including trade secrets, belonging to Gaussian, Inc.
  
 This software is provided under written license and may be
 used, copied, transmitted, or stored only in accord with that
 written license.
  
 The following legend is applicable only to US Government
 contracts under FAR:
  
                    RESTRICTED RIGHTS LEGEND
  
 Use, reproduction and disclosure by the US Government is
 subject to restrictions as set forth in subparagraphs (a)
 and (c) of the Commercial Computer Software - Restricted
 Rights clause in FAR 52.227-19.
  
 Gaussian, Inc.
 340 Quinnipiac St., Bldg. 40, Wallingford CT 06492
  
  
 ---------------------------------------------------------------
 Warning -- This program may not be used in any manner that
 competes with the business of Gaussian, Inc. or will provide
 assistance to any competitor of Gaussian, Inc.  The licensee
 of this program is prohibited from giving any competitor of
 Gaussian, Inc. access to this program.  By using this program,
 the user acknowledges that Gaussian, Inc. is engaged in the
 business of creating and licensing software in the field of
 computational chemistry and represents and warrants to the
 licensee that it is not a competitor of Gaussian, Inc. and that
 it will not use this program in any manner prohibited above.
 ---------------------------------------------------------------
  

 Cite this work as:
 Gaussian 16, Revision C.02,
 M. J. Frisch, G. W. Trucks, H. B. Schlegel, G. E. Scuseria, 
 M. A. Robb, J. R. Cheeseman, G. Scalmani, V. Barone, 
 G. A. Petersson, H. Nakatsuji, X. Li, M. Caricato, A. V. Marenich, 
 J. Bloino, B. G. Janesko, R. Gomperts, B. Mennucci, H. P. Hratchian, 
 J. V. Ortiz, A. F. Izmaylov, J. L. Sonnenberg, D. Williams-Young, 
 F. Ding, F. Lipparini, F. Egidi, J. Goings, B. Peng, A. Petrone, 
 T. Henderson, D. Ranasinghe, V. G. Zakrzewski, J. Gao, N. Rega, 
 G. Zheng, W. Liang, M. Hada, M. Ehara, K. Toyota, R. Fukuda, 
 J. Hasegawa, M. Ishida, T. Nakajima, Y. Honda, O. Kitao, H. Nakai, 
 T. Vreven, K. Throssell, J. A. Montgomery, Jr., J. E. Peralta, 
 F. Ogliaro, M. J. Bearpark, J. J. Heyd, E. N. Brothers, K. N. Kudin, 
 V. N. Staroverov, T. A. Keith, R. Kobayashi, J. Normand, 
 K. Raghavachari, A. P. Rendell, J. C. Burant, S. S. Iyengar, 
 J. Tomasi, M. Cossi, J. M. Millam, M. Klene, C. Adamo, R. Cammi, 
 J. W. Ochterski, R. L. Martin, K. Morokuma, O. Farkas, 
 J. B. Foresman, and D. J. Fox, Gaussian, Inc., Wallingford CT, 2019.
 
 ******************************************
 Gaussian 16:  ES64L-G16RevC.02  7-Dec-2021
                21-Feb-2025 
 ******************************************
 %chk=phe.019.tddft.chk
 %mem=9600MB
 SetSPE:  set environment variable "OMP_PROC_BIND" = "true"
 SetSPE:  set environment variable "OMP_PLACES" = "{5},{6},{7},{8},{9},{10},{11},{12}"
 -----------------------------
 # td=(nstat=3) b3lyp/6-31g(d)
 -----------------------------
 1/38=1,172=1/1;
 2/12=2,17=6,18=5,40=1/2;
 3/5=1,6=6,7=1,11=9,25=1,30=1,74=-5/1,2,3,8;
 4//1;
 5/5=2,38=5/2;
 8/6=1,10=2,108=3/1;
 9/41=3,42=1,70=2/14;
 6/7=2,8=2,9=2,10=2/1;
 99/5=1,9=1/99;
 -----------
 phe | No.19
 -----------
 Symbolic Z-matrix:
 Charge =  0 Multiplicity = 1
 C                    -1.37564  -0.09977   0.32052 
 H                    -1.16738   0.40851   1.28365 
 N                    -1.24345  -1.55736   0.39759 
 H                    -0.30554  -1.78343   0.72379 
 H                    -1.89824  -1.92552   1.08394 
 C                    -2.81936   0.26571  -0.01216 
 O                    -3.17903   1.11801  -0.79186 
 O                    -3.69817  -0.45866   0.72746 
 H                    -4.58766  -0.15525   0.4649 
 C                    -0.41915   0.4828   -0.73851 
 H                    -0.64391   1.5477   -0.84965 
 H                    -0.64839   0.00211  -1.69547 
 C                     1.03913   0.28521  -0.38268 
 C                     1.72913   1.24836   0.36759 
 C                     1.73141  -0.86848  -0.78041 
 C                     3.06687   1.06334   0.71811 
 H                     1.21278   2.15605   0.67348 
 C                     3.07007  -1.05759  -0.43123 
 H                     1.21419  -1.6191   -1.37322 
 C                     3.74208  -0.09237   0.32031 
 H                     3.584     1.825     1.29608 
 H                     3.58928  -1.95675  -0.75303 
 H                     4.78542  -0.2359    0.58836 
 
                          Input orientation:                          
 ---------------------------------------------------------------------
 Center     Atomic      Atomic             Coordinates (Angstroms)
 Number     Number       Type             X           Y           Z
 ---------------------------------------------------------------------
      1          6           0       -1.375642   -0.099769    0.320518
      2          1           0       -1.167384    0.408514    1.283646
      3          7           0       -1.243449   -1.557355    0.397587
      4          1           0       -0.305544   -1.783426    0.723786
      5          1           0       -1.898244   -1.925521    1.083945
      6          6           0       -2.819357    0.265713   -0.012156
      7          8           0       -3.179035    1.118014   -0.791861
      8          8           0       -3.698175   -0.458663    0.727461
      9          1           0       -4.587660   -0.155246    0.464897
     10          6           0       -0.419151    0.482800   -0.738505
     11          1           0       -0.643911    1.547700   -0.849649
     12          1           0       -0.648388    0.002110   -1.695473
     13          6           0        1.039135    0.285207   -0.382678
     14          6           0        1.729133    1.248362    0.367586
     15          6           0        1.731407   -0.868482   -0.780412
     16          6           0        3.066873    1.063339    0.718106
     17          1           0        1.212780    2.156053    0.673480
     18          6           0        3.070067   -1.057592   -0.431227
     19          1           0        1.214187   -1.619102   -1.373216
     20          6           0        3.742082   -0.092370    0.320313
     21          1           0        3.584001    1.825002    1.296082
     22          1           0        3.589283   -1.956748   -0.753031
     23          1           0        4.785418   -0.235902    0.588364
 ---------------------------------------------------------------------
                    Distance matrix (angstroms):
                    1          2          3          4          5
     1  C    0.000000
     2  H    1.108755   0.000000
     3  N    1.465596   2.157667   0.000000
     4  H    2.035297   2.420911   1.018420   0.000000
     5  H    2.046779   2.453927   1.017541   1.639085   0.000000
     6  C    1.525963   2.104402   2.444372   3.325633   2.617517
     7  O    2.443892   2.976216   3.509826   4.355742   3.797654
     8  O    2.385072   2.732442   2.709543   3.642109   2.349150
     9  H    3.215740   3.561806   3.626870   4.588519   3.278727
    10  C    1.541360   2.157421   2.476369   2.699441   3.362893
    11  H    2.149157   2.474412   3.399472   3.699539   4.168381
    12  H    2.145576   3.051175   2.677112   3.026301   3.605976
    13  C    2.544374   2.767773   3.035463   2.704009   3.958093
    14  C    3.385159   3.151876   4.087688   3.668587   4.872840
    15  C    3.384778   3.780746   3.272919   2.692379   4.215154
    16  C    4.609429   4.321755   5.054666   4.413309   5.806850
    17  H    3.451557   3.015191   4.460782   4.222243   5.148417
    18  C    4.609433   4.800651   4.420760   3.640830   5.266228
    19  H    3.447364   4.103903   3.029774   2.594996   3.977280
    20  C    5.117729   5.028096   5.196891   4.405194   5.979703
    21  H    5.408745   4.958049   5.962542   5.336369   6.645783
    22  H    5.408453   5.689323   4.983847   4.169017   5.786917
    23  H    6.168382   6.027814   6.174939   5.322693   6.911711
                    6          7          8          9         10
     6  C    0.000000
     7  O    1.209845   0.000000
     8  O    1.357967   2.250279   0.000000
     9  H    1.879277   2.277028   0.975800   0.000000
    10  C    2.517081   2.832544   3.713140   4.385402   0.000000
    11  H    2.660348   2.571930   3.980113   4.492350   1.094021
    12  H    2.759737   2.909627   3.922260   4.495534   1.095171
    13  C    3.876290   4.319023   4.922180   5.707294   1.514019
    14  C    4.668893   5.044940   5.700800   6.471589   2.534689
    15  C    4.752480   5.297050   5.649955   6.479977   2.540201
    16  C    5.984747   6.426069   6.934151   7.755059   3.822447
    17  H    4.505731   4.744764   5.563913   6.247457   2.730691
    18  C    6.050791   6.626809   6.892777   7.762606   3.826470
    19  H    4.655587   5.208664   5.467245   6.259630   2.736539
    20  C    6.579608   7.113636   7.460386   8.331234   4.332179
    21  H    6.719067   7.113227   7.653009   8.449159   4.686819
    22  H    6.823408   7.434097   7.585721   8.461156   4.692457
    23  H    7.644923   8.195768   8.487657   9.374238   5.418916
                   11         12         13         14         15
    11  H    0.000000
    12  H    1.761899   0.000000
    13  C    2.155132   2.156689   0.000000
    14  C    2.683766   3.385552   1.402377   0.000000
    15  C    3.388933   2.694196   1.403008   2.408097   0.000000
    16  C    4.057386   4.555736   2.434941   1.395223   2.785850
    17  H    2.477361   3.703425   2.155386   1.088161   3.395672
    18  C    4.555903   4.067947   2.435190   2.784534   1.396318
    19  H    3.708812   2.490254   2.153648   3.393805   1.087365
    20  C    4.826549   4.832033   2.818277   2.419041   2.420074
    21  H    4.749347   5.494129   3.415486   2.152941   3.872827
    22  H    5.496401   4.762686   3.415667   3.871520   2.153317
    23  H    5.892939   5.899052   3.905011   3.404800   3.405978
                   16         17         18         19         20
    16  C    0.000000
    17  H    2.152598   0.000000
    18  C    2.412328   3.872649   0.000000
    19  H    3.873185   4.294271   2.155673   0.000000
    20  C    1.396356   3.402573   1.395733   3.404292   0.000000
    21  H    1.087018   2.473847   3.399569   4.960143   2.157181
    22  H    3.399718   4.959620   1.087026   2.477845   2.156692
    23  H    2.158300   4.300283   2.158048   4.302875   1.086740
                   21         22         23
    21  H    0.000000
    22  H    4.301224   0.000000
    23  H    2.488291   2.488250   0.000000
 Stoichiometry    C9H11NO2
 Framework group  C1[X(C9H11NO2)]
 Deg. of freedom    63
 Full point group                 C1      NOp   1
 Largest Abelian subgroup         C1      NOp   1
 Largest concise Abelian subgroup C1      NOp   1
                         Standard orientation:                         
 ---------------------------------------------------------------------
 Center     Atomic      Atomic             Coordinates (Angstroms)
 Number     Number       Type             X           Y           Z
 ---------------------------------------------------------------------
      1          6           0       -1.375642    0.099769   -0.320518
      2          1           0       -1.167384   -0.408514   -1.283646
      3          7           0       -1.243449    1.557355   -0.397587
      4          1           0       -0.305544    1.783426   -0.723786
      5          1           0       -1.898244    1.925521   -1.083945
      6          6           0       -2.819357   -0.265713    0.012156
      7          8           0       -3.179035   -1.118014    0.791861
      8          8           0       -3.698175    0.458663   -0.727461
      9          1           0       -4.587660    0.155246   -0.464897
     10          6           0       -0.419151   -0.482800    0.738505
     11          1           0       -0.643911   -1.547700    0.849649
     12          1           0       -0.648388   -0.002110    1.695473
     13          6           0        1.039135   -0.285207    0.382678
     14          6           0        1.729133   -1.248362   -0.367586
     15          6           0        1.731407    0.868482    0.780412
     16          6           0        3.066873   -1.063339   -0.718106
     17          1           0        1.212780   -2.156053   -0.673480
     18          6           0        3.070067    1.057592    0.431227
     19          1           0        1.214187    1.619102    1.373216
     20          6           0        3.742082    0.092370   -0.320313
     21          1           0        3.584001   -1.825002   -1.296082
     22          1           0        3.589283    1.956748    0.753031
     23          1           0        4.785418    0.235902   -0.588364
 ---------------------------------------------------------------------
 Rotational constants (GHZ):           2.5015441           0.4429512           0.4138369
 Standard basis: 6-31G(d) (6D, 7F)
 There are   202 symmetry adapted cartesian basis functions of A   symmetry.
 There are   202 symmetry adapted basis functions of A   symmetry.
   202 basis functions,   380 primitive gaussians,   202 cartesian basis functions
    44 alpha electrons       44 beta electrons
       nuclear repulsion energy       665.9294414721 Hartrees.
 NAtoms=   23 NActive=   23 NUniq=   23 SFac= 1.00D+00 NAtFMM=   60 NAOKFM=F Big=F
 Integral buffers will be    131072 words long.
 Regular integral format.
 Two-electron integral symmetry is turned on.
 One-electron integrals computed using PRISM.
 NBasis=   202 RedAO= T EigKep=  4.67D-04  NBF=   202
 NBsUse=   202 1.00D-06 EigRej= -1.00D+00 NBFU=   202
 ExpMin= 1.61D-01 ExpMax= 5.48D+03 ExpMxC= 8.25D+02 IAcc=3 IRadAn=         5 AccDes= 0.00D+00
 Harris functional with IExCor=  402 and IRadAn=       5 diagonalized for initial guess.
 HarFok:  IExCor=  402 AccDes= 0.00D+00 IRadAn=         5 IDoV= 1 UseB2=F ITyADJ=14
 ICtDFT=  3500011 ScaDFX=  1.000000  1.000000  1.000000  1.000000
 FoFCou: FMM=F IPFlag=           0 FMFlag=      100000 FMFlg1=           0
         NFxFlg=           0 DoJE=T BraDBF=F KetDBF=T FulRan=T
         wScrn=  0.000000 ICntrl=       500 IOpCl=  0 I1Cent=   200000004 NGrid=           0
         NMat0=    1 NMatS0=      1 NMatT0=    0 NMatD0=    1 NMtDS0=    0 NMtDT0=    0
 Petite list used in FoFCou.
 Requested convergence on RMS density matrix=1.00D-08 within 128 cycles.
 Requested convergence on MAX density matrix=1.00D-06.
 Requested convergence on             energy=1.00D-06.
 No special actions if energy rises.
 Integral accuracy reduced to 1.0D-05 until final iterations.
 Initial convergence to 1.0D-05 achieved.  Increase integral accuracy.
 SCF Done:  E(RB3LYP) =  -554.786613478     A.U. after   14 cycles
            NFock= 14  Conv=0.44D-08     -V/T= 2.0094
 DoSCS=F DFT=T ScalE2(SS,OS)=  1.000000  1.000000
 ExpMin= 1.61D-01 ExpMax= 5.48D+03 ExpMxC= 8.25D+02 IAcc=3 IRadAn=         5 AccDes= 0.00D+00
 HarFok:  IExCor=  205 AccDes= 0.00D+00 IRadAn=         5 IDoV=-2 UseB2=F ITyADJ=14
 ICtDFT= 12500011 ScaDFX=  1.000000  1.000000  1.000000  1.000000
 Range of M.O.s used for correlation:    13   202
 NBasis=   202 NAE=    44 NBE=    44 NFC=    12 NFV=     0
 NROrb=    190 NOA=    32 NOB=    32 NVA=   158 NVB=   158
 Keep R1, R2, and R3 ints in memory in canonical form, NReq=656629584.
 Orbital symmetries:
       Occupied  (A) (A) (A) (A) (A) (A) (A) (A) (A) (A) (A) (A)
                 (A) (A) (A) (A) (A) (A) (A) (A) (A) (A) (A) (A)
                 (A) (A) (A) (A) (A) (A) (A) (A) (A) (A) (A) (A)
                 (A) (A) (A) (A) (A) (A) (A) (A)
       Virtual   (A) (A) (A) (A) (A) (A) (A) (A) (A) (A) (A) (A)
                 (A) (A) (A) (A) (A) (A) (A) (A) (A) (A) (A) (A)
                 (A) (A) (A) (A) (A) (A) (A) (A) (A) (A) (A) (A)
                 (A) (A) (A) (A) (A) (A) (A) (A) (A) (A) (A) (A)
                 (A) (A) (A) (A) (A) (A) (A) (A) (A) (A) (A) (A)
                 (A) (A) (A) (A) (A) (A) (A) (A) (A) (A) (A) (A)
                 (A) (A) (A) (A) (A) (A) (A) (A) (A) (A) (A) (A)
                 (A) (A) (A) (A) (A) (A) (A) (A) (A) (A) (A) (A)
                 (A) (A) (A) (A) (A) (A) (A) (A) (A) (A) (A) (A)
                 (A) (A) (A) (A) (A) (A) (A) (A) (A) (A) (A) (A)
                 (A) (A) (A) (A) (A) (A) (A) (A) (A) (A) (A) (A)
                 (A) (A) (A) (A) (A) (A) (A) (A) (A) (A) (A) (A)
                 (A) (A) (A) (A) (A) (A) (A) (A) (A) (A) (A) (A)
                 (A) (A)
    12 initial guesses have been made.
 Convergence on wavefunction:    0.001000000000000
 Iteration     1 Dimension    12 NMult     0 NNew     12
 CISAX will form    12 AO SS matrices at one time.
 New state      2 was old state      4
 New state      3 was old state      2
 Iteration     2 Dimension    18 NMult    12 NNew      6
 Iteration     3 Dimension    24 NMult    18 NNew      6
 Iteration     4 Dimension    30 NMult    24 NNew      6
 Iteration     5 Dimension    36 NMult    30 NNew      6
 Iteration     6 Dimension    38 NMult    36 NNew      2
 ***********************************************************************
 Excited states from <AA,BB:AA,BB> singles matrix:
 ***********************************************************************
 
 Ground to excited state transition densities written to RWF  633
 Ground to excited state transition electric dipole moments (Au):
       state          X           Y           Z        Dip. S.      Osc.
         1         0.0381     -0.0760     -0.0355      0.0085      0.0011
         2         0.1262     -0.0094     -0.0680      0.0206      0.0028
         3         0.2834     -0.0100     -0.0027      0.0804      0.0114
 Ground to excited state transition velocity dipole moments (Au):
       state          X           Y           Z        Dip. S.      Osc.
         1        -0.0079      0.0156      0.0092      0.0004      0.0013
         2        -0.0177      0.0018      0.0165      0.0006      0.0019
         3        -0.0575      0.0005      0.0006      0.0033      0.0104
 Ground to excited state transition magnetic dipole moments (Au):
       state          X           Y           Z
         1         0.0582     -0.0738      0.1750
         2        -0.2664     -0.1936      0.0587
         3         0.0672     -0.0495     -0.1465
 Ground to excited state transition velocity quadrupole moments (Au):
       state          XX          YY          ZZ          XY          XZ          YZ
         1        -0.0298      0.0095     -0.0158      0.0726      0.0420     -0.0011
         2         0.1547     -0.0208     -0.0615      0.0455     -0.0795     -0.0929
         3        -0.3202      0.0312      0.0166     -0.0673     -0.0075     -0.0224
 <0|del|b> * <b|rxdel|0> + <0|del|b> * <b|delr+rdel|0>
 Rotatory Strengths (R) in cgs (10**-40 erg-esu-cm/Gauss)
       state          XX          YY          ZZ    R(velocity)    E-M Angle
         1         0.8351      0.8719     -1.7196     -0.0042       90.00
         2         2.6465     11.4777      4.4866      6.2036       49.02
         3        -0.2346     -4.3759     -8.6533     -4.4213      114.16
 1/2[<0|r|b>*<b|rxdel|0> + (<0|rxdel|b>*<b|r|0>)*]
 Rotatory Strengths (R) in cgs (10**-40 erg-esu-cm/Gauss)
       state          XX          YY          ZZ     R(length)
         1        -1.5660     -3.9666      4.3912     -0.3805
         2        23.7750     -1.2902      2.8208      8.4352
         3       -13.4638     -0.3484     -0.2796     -4.6973
  1/2[<0|del|b>*<b|r|0> + (<0|r|b>*<b|del|0>)*] (Au)
       state          X           Y           Z        Dip. S.   Osc.(frdel)
         1        -0.0003     -0.0012     -0.0003      0.0018      0.0012
         2        -0.0022     -0.0000     -0.0011      0.0034      0.0022
         3        -0.0163     -0.0000     -0.0000      0.0163      0.0109

 Excitation energies and oscillator strengths:
 
 Excited State   1:      Singlet-A      5.4113 eV  229.12 nm  f=0.0011  <S**2>=0.000
      42 -> 45         0.27223
      42 -> 46         0.34248
      43 -> 45        -0.18953
      43 -> 46         0.28678
      44 -> 45         0.39806
      44 -> 46        -0.16399
 This state for optimization and/or second-order correction.
 Total Energy, E(TD-HF/TD-DFT) =  -554.587750238    
 Copying the excited state density for this state as the 1-particle RhoCI density.
 
 Excited State   2:      Singlet-A      5.5029 eV  225.31 nm  f=0.0028  <S**2>=0.000
      41 -> 47         0.26698
      43 -> 47         0.39926
      44 -> 47         0.48809
 
 Excited State   3:      Singlet-A      5.7628 eV  215.14 nm  f=0.0114  <S**2>=0.000
      42 -> 45        -0.10632
      43 -> 46         0.29183
      44 -> 45         0.21758
      44 -> 46         0.58250
 SavETr:  write IOETrn=   770 NScale= 10 NData=  16 NLR=1 NState=    3 LETran=      64.

 **********************************************************************

            Population analysis using the SCF Density.

 **********************************************************************

 Orbital symmetries:
       Occupied  (A) (A) (A) (A) (A) (A) (A) (A) (A) (A) (A) (A)
                 (A) (A) (A) (A) (A) (A) (A) (A) (A) (A) (A) (A)
                 (A) (A) (A) (A) (A) (A) (A) (A) (A) (A) (A) (A)
                 (A) (A) (A) (A) (A) (A) (A) (A)
       Virtual   (A) (A) (A) (A) (A) (A) (A) (A) (A) (A) (A) (A)
                 (A) (A) (A) (A) (A) (A) (A) (A) (A) (A) (A) (A)
                 (A) (A) (A) (A) (A) (A) (A) (A) (A) (A) (A) (A)
                 (A) (A) (A) (A) (A) (A) (A) (A) (A) (A) (A) (A)
                 (A) (A) (A) (A) (A) (A) (A) (A) (A) (A) (A) (A)
                 (A) (A) (A) (A) (A) (A) (A) (A) (A) (A) (A) (A)
                 (A) (A) (A) (A) (A) (A) (A) (A) (A) (A) (A) (A)
                 (A) (A) (A) (A) (A) (A) (A) (A) (A) (A) (A) (A)
                 (A) (A) (A) (A) (A) (A) (A) (A) (A) (A) (A) (A)
                 (A) (A) (A) (A) (A) (A) (A) (A) (A) (A) (A) (A)
                 (A) (A) (A) (A) (A) (A) (A) (A) (A) (A) (A) (A)
                 (A) (A) (A) (A) (A) (A) (A) (A) (A) (A) (A) (A)
                 (A) (A) (A) (A) (A) (A) (A) (A) (A) (A) (A) (A)
                 (A) (A)
 The electronic state is 1-A.
 Alpha  occ. eigenvalues --  -19.20175 -19.14414 -14.31831 -10.32284 -10.23420
 Alpha  occ. eigenvalues --  -10.19676 -10.19079 -10.19052 -10.18938 -10.18883
 Alpha  occ. eigenvalues --  -10.18753 -10.18741  -1.10967  -1.01910  -0.89576
 Alpha  occ. eigenvalues --   -0.85268  -0.77673  -0.74313  -0.72695  -0.67040
 Alpha  occ. eigenvalues --   -0.60457  -0.59868  -0.56848  -0.51501  -0.50414
 Alpha  occ. eigenvalues --   -0.49397  -0.48679  -0.46115  -0.45252  -0.44533
 Alpha  occ. eigenvalues --   -0.42281  -0.41804  -0.41113  -0.39067  -0.38295
 Alpha  occ. eigenvalues --   -0.36908  -0.35213  -0.33748  -0.33632  -0.32310
 Alpha  occ. eigenvalues --   -0.28196  -0.25048  -0.24590  -0.23888
 Alpha virt. eigenvalues --   -0.00247  -0.00183   0.00494   0.06875   0.09318
 Alpha virt. eigenvalues --    0.10917   0.12612   0.13297   0.14715   0.15886
 Alpha virt. eigenvalues --    0.16468   0.16693   0.18237   0.19156   0.19556
 Alpha virt. eigenvalues --    0.22270   0.22874   0.25529   0.25977   0.30631
 Alpha virt. eigenvalues --    0.31644   0.33094   0.33814   0.34699   0.38542
 Alpha virt. eigenvalues --    0.46056   0.52394   0.52904   0.54250   0.54937
 Alpha virt. eigenvalues --    0.55353   0.55872   0.57368   0.59367   0.59624
 Alpha virt. eigenvalues --    0.59842   0.60665   0.61232   0.61609   0.62254
 Alpha virt. eigenvalues --    0.65060   0.65857   0.66441   0.69241   0.70715
 Alpha virt. eigenvalues --    0.71913   0.72926   0.75704   0.77678   0.80608
 Alpha virt. eigenvalues --    0.82484   0.83020   0.83796   0.84041   0.84231
 Alpha virt. eigenvalues --    0.85581   0.87348   0.88972   0.90273   0.91251
 Alpha virt. eigenvalues --    0.92503   0.93831   0.94251   0.95745   0.96295
 Alpha virt. eigenvalues --    0.98116   0.99941   1.01651   1.03037   1.07096
 Alpha virt. eigenvalues --    1.10560   1.11441   1.12613   1.13324   1.17056
 Alpha virt. eigenvalues --    1.18122   1.21692   1.25138   1.27620   1.30947
 Alpha virt. eigenvalues --    1.39126   1.39517   1.42720   1.43649   1.45733
 Alpha virt. eigenvalues --    1.48453   1.49267   1.51101   1.51465   1.55775
 Alpha virt. eigenvalues --    1.57644   1.60269   1.66765   1.68917   1.74787
 Alpha virt. eigenvalues --    1.75876   1.78286   1.79736   1.80491   1.81473
 Alpha virt. eigenvalues --    1.83493   1.86399   1.89197   1.91163   1.92709
 Alpha virt. eigenvalues --    1.94644   1.96163   1.97637   1.99279   2.00280
 Alpha virt. eigenvalues --    2.04622   2.05795   2.07712   2.13596   2.14133
 Alpha virt. eigenvalues --    2.15114   2.16290   2.21387   2.22076   2.26289
 Alpha virt. eigenvalues --    2.29789   2.31675   2.34146   2.36600   2.38602
 Alpha virt. eigenvalues --    2.40475   2.43114   2.52013   2.54511   2.57902
 Alpha virt. eigenvalues --    2.58266   2.62187   2.64079   2.65535   2.67799
 Alpha virt. eigenvalues --    2.72635   2.74410   2.75013   2.76621   2.79146
 Alpha virt. eigenvalues --    2.85381   2.93075   2.98873   3.04991   3.11443
 Alpha virt. eigenvalues --    3.40842   3.79552   3.84037   4.09099   4.11904
 Alpha virt. eigenvalues --    4.12840   4.14828   4.24810   4.33698   4.40198
 Alpha virt. eigenvalues --    4.42765   4.62248   4.71007
          Condensed to atoms (all electrons):
               1          2          3          4          5          6
     1  C    5.126646   0.349324   0.280354  -0.029252  -0.026852   0.297335
     2  H    0.349324   0.635939  -0.044113  -0.005115  -0.002591  -0.036679
     3  N    0.280354  -0.044113   6.998942   0.293525   0.301334  -0.036051
     4  H   -0.029252  -0.005115   0.293525   0.441350  -0.026844   0.005103
     5  H   -0.026852  -0.002591   0.301334  -0.026844   0.430830  -0.011101
     6  C    0.297335  -0.036679  -0.036051   0.005103  -0.011101   4.358831
     7  O   -0.080145   0.001098   0.001267  -0.000089   0.000111   0.571234
     8  O   -0.093520  -0.000312  -0.002023   0.000062   0.012053   0.281703
     9  H    0.010960  -0.000539  -0.000316   0.000033  -0.000337  -0.007185
    10  C    0.339379  -0.053947  -0.061955  -0.005918   0.006255  -0.030148
    11  H   -0.032708   0.001104   0.004604  -0.000071  -0.000218  -0.004361
    12  H   -0.036016   0.006522   0.001806  -0.000280  -0.000039  -0.005629
    13  C   -0.034752  -0.003893  -0.007386   0.008455   0.000128   0.004691
    14  C   -0.003560   0.003800  -0.000107   0.000113  -0.000021   0.000055
    15  C   -0.005622   0.000864  -0.000954   0.008275  -0.000037  -0.000086
    16  C   -0.000069  -0.000171   0.000019  -0.000067  -0.000001   0.000003
    17  H    0.000325   0.001059   0.000016  -0.000011  -0.000000  -0.000067
    18  C   -0.000049  -0.000010  -0.000107   0.000199   0.000002   0.000001
    19  H   -0.000157   0.000158   0.003072  -0.000748  -0.000015  -0.000063
    20  C    0.000024  -0.000001   0.000009  -0.000077   0.000000  -0.000000
    21  H   -0.000001   0.000002   0.000000  -0.000000   0.000000  -0.000000
    22  H   -0.000001  -0.000000  -0.000002   0.000003   0.000000  -0.000000
    23  H    0.000000  -0.000000   0.000000  -0.000000  -0.000000   0.000000
               7          8          9         10         11         12
     1  C   -0.080145  -0.093520   0.010960   0.339379  -0.032708  -0.036016
     2  H    0.001098  -0.000312  -0.000539  -0.053947   0.001104   0.006522
     3  N    0.001267  -0.002023  -0.000316  -0.061955   0.004604   0.001806
     4  H   -0.000089   0.000062   0.000033  -0.005918  -0.000071  -0.000280
     5  H    0.000111   0.012053  -0.000337   0.006255  -0.000218  -0.000039
     6  C    0.571234   0.281703  -0.007185  -0.030148  -0.004361  -0.005629
     7  O    8.029507  -0.084091   0.011643   0.002186   0.008068   0.002148
     8  O   -0.084091   8.247252   0.216660   0.002606   0.000161   0.000002
     9  H    0.011643   0.216660   0.357828  -0.000254  -0.000020  -0.000017
    10  C    0.002186   0.002606  -0.000254   5.206798   0.351466   0.356296
    11  H    0.008068   0.000161  -0.000020   0.351466   0.562431  -0.027522
    12  H    0.002148   0.000002  -0.000017   0.356296  -0.027522   0.563718
    13  C    0.000722  -0.000017   0.000001   0.336449  -0.031946  -0.029870
    14  C   -0.000007  -0.000001   0.000000  -0.054853  -0.005580   0.003918
    15  C   -0.000003  -0.000001   0.000000  -0.054366   0.004129  -0.004819
    16  C   -0.000000  -0.000000   0.000000   0.006533   0.000172  -0.000204
    17  H    0.000000   0.000000  -0.000000  -0.009094   0.005179   0.000071
    18  C   -0.000000  -0.000000   0.000000   0.006369  -0.000171   0.000155
    19  H    0.000001   0.000000  -0.000000  -0.008653   0.000061   0.005730
    20  C    0.000000   0.000000  -0.000000   0.000372   0.000008   0.000014
    21  H   -0.000000   0.000000  -0.000000  -0.000175  -0.000007   0.000003
    22  H   -0.000000   0.000000  -0.000000  -0.000171   0.000003  -0.000007
    23  H    0.000000  -0.000000  -0.000000   0.000006  -0.000000  -0.000000
              13         14         15         16         17         18
     1  C   -0.034752  -0.003560  -0.005622  -0.000069   0.000325  -0.000049
     2  H   -0.003893   0.003800   0.000864  -0.000171   0.001059  -0.000010
     3  N   -0.007386  -0.000107  -0.000954   0.000019   0.000016  -0.000107
     4  H    0.008455   0.000113   0.008275  -0.000067  -0.000011   0.000199
     5  H    0.000128  -0.000021  -0.000037  -0.000001  -0.000000   0.000002
     6  C    0.004691   0.000055  -0.000086   0.000003  -0.000067   0.000001
     7  O    0.000722  -0.000007  -0.000003  -0.000000   0.000000  -0.000000
     8  O   -0.000017  -0.000001  -0.000001  -0.000000   0.000000  -0.000000
     9  H    0.000001   0.000000   0.000000   0.000000  -0.000000   0.000000
    10  C    0.336449  -0.054853  -0.054366   0.006533  -0.009094   0.006369
    11  H   -0.031946  -0.005580   0.004129   0.000172   0.005179  -0.000171
    12  H   -0.029870   0.003918  -0.004819  -0.000204   0.000071   0.000155
    13  C    4.685382   0.544854   0.539714  -0.018773  -0.045941  -0.022727
    14  C    0.544854   4.969994  -0.043499   0.522004   0.354463  -0.046238
    15  C    0.539714  -0.043499   4.985178  -0.046604   0.006298   0.515839
    16  C   -0.018773   0.522004  -0.046604   4.869574  -0.045849  -0.026474
    17  H   -0.045941   0.354463   0.006298  -0.045849   0.608709   0.000338
    18  C   -0.022727  -0.046238   0.515839  -0.026474   0.000338   4.878743
    19  H   -0.043548   0.006094   0.355259   0.000333  -0.000174  -0.044772
    20  C   -0.034392  -0.035604  -0.035421   0.549244   0.004841   0.550069
    21  H    0.003750  -0.039575   0.000795   0.356655  -0.005661   0.004613
    22  H    0.003725   0.000818  -0.039435   0.004601   0.000018   0.356767
    23  H    0.000651   0.004727   0.004675  -0.043037  -0.000180  -0.043289
              19         20         21         22         23
     1  C   -0.000157   0.000024  -0.000001  -0.000001   0.000000
     2  H    0.000158  -0.000001   0.000002  -0.000000  -0.000000
     3  N    0.003072   0.000009   0.000000  -0.000002   0.000000
     4  H   -0.000748  -0.000077  -0.000000   0.000003  -0.000000
     5  H   -0.000015   0.000000   0.000000   0.000000  -0.000000
     6  C   -0.000063  -0.000000  -0.000000  -0.000000   0.000000
     7  O    0.000001   0.000000  -0.000000  -0.000000   0.000000
     8  O    0.000000   0.000000   0.000000   0.000000  -0.000000
     9  H   -0.000000  -0.000000  -0.000000  -0.000000  -0.000000
    10  C   -0.008653   0.000372  -0.000175  -0.000171   0.000006
    11  H    0.000061   0.000008  -0.000007   0.000003  -0.000000
    12  H    0.005730   0.000014   0.000003  -0.000007  -0.000000
    13  C   -0.043548  -0.034392   0.003750   0.003725   0.000651
    14  C    0.006094  -0.035604  -0.039575   0.000818   0.004727
    15  C    0.355259  -0.035421   0.000795  -0.039435   0.004675
    16  C    0.000333   0.549244   0.356655   0.004601  -0.043037
    17  H   -0.000174   0.004841  -0.005661   0.000018  -0.000180
    18  C   -0.044772   0.550069   0.004613   0.356767  -0.043289
    19  H    0.586048   0.004658   0.000017  -0.005401  -0.000170
    20  C    0.004658   4.854046  -0.043241  -0.043202   0.359236
    21  H    0.000017  -0.043241   0.598439  -0.000188  -0.005547
    22  H   -0.005401  -0.043202  -0.000188   0.597092  -0.005580
    23  H   -0.000170   0.359236  -0.005547  -0.005580   0.598994
 Mulliken charges:
               1
     1  C   -0.061644
     2  H    0.147498
     3  N   -0.731935
     4  H    0.311356
     5  H    0.317343
     6  C    0.612415
     7  O   -0.463651
     8  O   -0.580534
     9  H    0.411542
    10  C   -0.335181
    11  H    0.165219
    12  H    0.164019
    13  C    0.144723
    14  C   -0.181797
    15  C   -0.190181
    16  C   -0.127888
    17  H    0.125662
    18  C   -0.129257
    19  H    0.142272
    20  C   -0.130580
    21  H    0.130121
    22  H    0.130961
    23  H    0.129516
 Sum of Mulliken charges =  -0.00000
 Mulliken charges with hydrogens summed into heavy atoms:
               1
     1  C    0.085853
     3  N   -0.103236
     6  C    0.612415
     7  O   -0.463651
     8  O   -0.168992
    10  C   -0.005942
    13  C    0.144723
    14  C   -0.056135
    15  C   -0.047909
    16  C    0.002233
    18  C    0.001704
    20  C   -0.001063
 Electronic spatial extent (au):  <R**2>=           2642.9480
 Charge=             -0.0000 electrons
 Dipole moment (field-independent basis, Debye):
    X=              0.3664    Y=              0.6595    Z=             -2.1234  Tot=              2.2534
 Quadrupole moment (field-independent basis, Debye-Ang):
   XX=            -61.0581   YY=            -70.0228   ZZ=            -70.9950
   XY=             -1.4952   XZ=              3.4481   YZ=              2.3045
 Traceless Quadrupole moment (field-independent basis, Debye-Ang):
   XX=              6.3005   YY=             -2.6642   ZZ=             -3.6363
   XY=             -1.4952   XZ=              3.4481   YZ=              2.3045
 Octapole moment (field-independent basis, Debye-Ang**2):
  XXX=            -65.1499  YYY=              1.6572  ZZZ=             -1.8468  XYY=              3.6978
  XXY=             15.8623  XXZ=            -23.8376  XZZ=            -10.7663  YZZ=              4.1966
  YYZ=             -9.0305  XYZ=              2.0032
 Hexadecapole moment (field-independent basis, Debye-Ang**3):
 XXXX=          -2234.0056 YYYY=           -436.5983 ZZZZ=           -236.4610 XXXY=            -22.2439
 XXXZ=             27.1879 YYYX=              0.5332 YYYZ=             -6.7351 ZZZX=              4.1781
 ZZZY=             -5.2393 XXYY=           -539.8686 XXZZ=           -517.4617 YYZZ=           -105.8287
 XXYZ=             40.0796 YYXZ=             14.6197 ZZXY=             -7.8164
 N-N= 6.659294414721D+02 E-N=-2.623789620996D+03  KE= 5.496261539949D+02
 Unable to Open any file for archive entry.
 1\1\GINC-CCC015\SP\RB3LYP TD-FC\6-31G(d)\C9H11N1O2\ROOT\21-Feb-2025\0\
 \# td=(nstat=3) b3lyp/6-31g(d)\\phe | No.19\\0,1\C,0,-1.375642,-0.0997
 69,0.320518\H,0,-1.167384,0.408514,1.283646\N,0,-1.243449,-1.557355,0.
 397587\H,0,-0.305544,-1.783426,0.723786\H,0,-1.898244,-1.925521,1.0839
 45\C,0,-2.819357,0.265713,-0.012156\O,0,-3.179035,1.118014,-0.791861\O
 ,0,-3.698175,-0.458663,0.727461\H,0,-4.58766,-0.155246,0.464897\C,0,-0
 .419151,0.4828,-0.738505\H,0,-0.643911,1.5477,-0.849649\H,0,-0.648388,
 0.00211,-1.695473\C,0,1.039135,0.285207,-0.382678\C,0,1.729133,1.24836
 2,0.367586\C,0,1.731407,-0.868482,-0.780412\C,0,3.066873,1.063339,0.71
 8106\H,0,1.21278,2.156053,0.67348\C,0,3.070067,-1.057592,-0.431227\H,0
 ,1.214187,-1.619102,-1.373216\C,0,3.742082,-0.09237,0.320313\H,0,3.584
 001,1.825002,1.296082\H,0,3.589283,-1.956748,-0.753031\H,0,4.785418,-0
 .235902,0.588364\\Version=ES64L-G16RevC.02\State=1-A\HF=-554.7866135\R
 MSD=4.374e-09\PG=C01 [X(C9H11N1O2)]\\@
 The archive entry for this job was punched.


 THERE IS SOMETHING FASCINATING ABOUT SCIENCE.
 ONE GETS SUCH WHOLESALE CONJECTURE OUT OF SUCH TRIFLING INVESTMENTS.

                                                       -- MARK TWAIN
 Job cpu time:       0 days  0 hours  9 minutes 15.7 seconds.
 Elapsed time:       0 days  0 hours  1 minutes 19.0 seconds.
 File lengths (MBytes):  RWF=    272 Int=      0 D2E=      0 Chk=      8 Scr=      1
 Normal termination of Gaussian 16 at Fri Feb 21 15:15:48 2025.
