 Entering Gaussian System, Link 0=/apl/gaussian/16c02/g16/._.g16
 Initial command:
 /apl/gaussian/16c02/g16/l1.exe "/lwork/users/ux8/8287067.ccpbs1/gaussian/Gau-1244519.inp" -scrdir="/lwork/users/ux8/8287067.ccpbs1/gaussian/"
 Default CPUs for threads: 88,89,90,91,92,93,94,95
 Default is to use a total of   8 processors:
                                8 via shared-memory
                                1 via Linda
 Entering Link 1 = /apl/gaussian/16c02/g16/l1.exe PID=   1244520.
  
 Copyright (c) 1988-2021, Gaussian, Inc.  All Rights Reserved.
  
 This is part of the Gaussian(R) 16 program.  It is based on
 the Gaussian(R) 09 system (copyright 2009, Gaussian, Inc.),
 the Gaussian(R) 03 system (copyright 2003, Gaussian, Inc.),
 the Gaussian(R) 98 system (copyright 1998, Gaussian, Inc.),
 the Gaussian(R) 94 system (copyright 1995, Gaussian, Inc.),
 the Gaussian 92(TM) system (copyright 1992, Gaussian, Inc.),
 the Gaussian 90(TM) system (copyright 1990, Gaussian, Inc.),
 the Gaussian 88(TM) system (copyright 1988, Gaussian, Inc.),
 the Gaussian 86(TM) system (copyright 1986, Carnegie Mellon
 University), and the Gaussian 82(TM) system (copyright 1983,
 Carnegie Mellon University). Gaussian is a federally registered
 trademark of Gaussian, Inc.
  
 This software contains proprietary and confidential information,
 including trade secrets, belonging to Gaussian, Inc.
  
 This software is provided under written license and may be
 used, copied, transmitted, or stored only in accord with that
 written license.
  
 The following legend is applicable only to US Government
 contracts under FAR:
  
                    RESTRICTED RIGHTS LEGEND
  
 Use, reproduction and disclosure by the US Government is
 subject to restrictions as set forth in subparagraphs (a)
 and (c) of the Commercial Computer Software - Restricted
 Rights clause in FAR 52.227-19.
  
 Gaussian, Inc.
 340 Quinnipiac St., Bldg. 40, Wallingford CT 06492
  
  
 ---------------------------------------------------------------
 Warning -- This program may not be used in any manner that
 competes with the business of Gaussian, Inc. or will provide
 assistance to any competitor of Gaussian, Inc.  The licensee
 of this program is prohibited from giving any competitor of
 Gaussian, Inc. access to this program.  By using this program,
 the user acknowledges that Gaussian, Inc. is engaged in the
 business of creating and licensing software in the field of
 computational chemistry and represents and warrants to the
 licensee that it is not a competitor of Gaussian, Inc. and that
 it will not use this program in any manner prohibited above.
 ---------------------------------------------------------------
  

 Cite this work as:
 Gaussian 16, Revision C.02,
 M. J. Frisch, G. W. Trucks, H. B. Schlegel, G. E. Scuseria, 
 M. A. Robb, J. R. Cheeseman, G. Scalmani, V. Barone, 
 G. A. Petersson, H. Nakatsuji, X. Li, M. Caricato, A. V. Marenich, 
 J. Bloino, B. G. Janesko, R. Gomperts, B. Mennucci, H. P. Hratchian, 
 J. V. Ortiz, A. F. Izmaylov, J. L. Sonnenberg, D. Williams-Young, 
 F. Ding, F. Lipparini, F. Egidi, J. Goings, B. Peng, A. Petrone, 
 T. Henderson, D. Ranasinghe, V. G. Zakrzewski, J. Gao, N. Rega, 
 G. Zheng, W. Liang, M. Hada, M. Ehara, K. Toyota, R. Fukuda, 
 J. Hasegawa, M. Ishida, T. Nakajima, Y. Honda, O. Kitao, H. Nakai, 
 T. Vreven, K. Throssell, J. A. Montgomery, Jr., J. E. Peralta, 
 F. Ogliaro, M. J. Bearpark, J. J. Heyd, E. N. Brothers, K. N. Kudin, 
 V. N. Staroverov, T. A. Keith, R. Kobayashi, J. Normand, 
 K. Raghavachari, A. P. Rendell, J. C. Burant, S. S. Iyengar, 
 J. Tomasi, M. Cossi, J. M. Millam, M. Klene, C. Adamo, R. Cammi, 
 J. W. Ochterski, R. L. Martin, K. Morokuma, O. Farkas, 
 J. B. Foresman, and D. J. Fox, Gaussian, Inc., Wallingford CT, 2019.
 
 ******************************************
 Gaussian 16:  ES64L-G16RevC.02  7-Dec-2021
                21-Feb-2025 
 ******************************************
 %chk=phe.008.tddft.chk
 %mem=9600MB
 SetSPE:  set environment variable "OMP_PROC_BIND" = "true"
 SetSPE:  set environment variable "OMP_PLACES" = "{88},{89},{90},{91},{92},{93},{94},{95}"
 -----------------------------
 # td=(nstat=3) b3lyp/6-31g(d)
 -----------------------------
 1/38=1,172=1/1;
 2/12=2,17=6,18=5,40=1/2;
 3/5=1,6=6,7=1,11=9,25=1,30=1,74=-5/1,2,3,8;
 4//1;
 5/5=2,38=5/2;
 8/6=1,10=2,108=3/1;
 9/41=3,42=1,70=2/14;
 6/7=2,8=2,9=2,10=2/1;
 99/5=1,9=1/99;
 ----------
 phe | No.8
 ----------
 Symbolic Z-matrix:
 Charge =  0 Multiplicity = 1
 C                    -1.43236  -0.3344    0.0503 
 H                    -1.27434  -0.94725   0.96014 
 N                    -1.38283  -1.10907  -1.19428 
 H                    -0.44772  -1.49458  -1.31024 
 H                    -2.033    -1.88995  -1.14545 
 C                    -2.83569   0.2418    0.21883 
 O                    -3.11445   1.37686   0.53104 
 O                    -3.78218  -0.71001   0.01691 
 H                    -4.64264  -0.26822   0.14516 
 C                    -0.39511   0.79172   0.02714 
 H                    -0.58629   1.44345   0.8886 
 H                    -0.58198   1.40311  -0.86278 
 C                     1.06038   0.35087   0.04156 
 C                     2.04205   1.25264  -0.39774 
 C                     1.48511  -0.89348   0.52755 
 C                     3.39607   0.92571  -0.35731 
 H                     1.7348    2.22413  -0.77897 
 C                     2.8416   -1.22834   0.5655 
 H                     0.75872  -1.61715   0.88824 
 C                     3.80298  -0.32082   0.1242 
 H                     4.13434   1.64345  -0.70562 
 H                     3.14312  -2.20173   0.944 
 H                     4.85765  -0.58075   0.15319 
 
                          Input orientation:                          
 ---------------------------------------------------------------------
 Center     Atomic      Atomic             Coordinates (Angstroms)
 Number     Number       Type             X           Y           Z
 ---------------------------------------------------------------------
      1          6           0       -1.432357   -0.334400    0.050296
      2          1           0       -1.274338   -0.947246    0.960138
      3          7           0       -1.382832   -1.109073   -1.194275
      4          1           0       -0.447721   -1.494583   -1.310241
      5          1           0       -2.032999   -1.889952   -1.145445
      6          6           0       -2.835685    0.241798    0.218826
      7          8           0       -3.114448    1.376863    0.531042
      8          8           0       -3.782178   -0.710012    0.016909
      9          1           0       -4.642642   -0.268215    0.145160
     10          6           0       -0.395107    0.791724    0.027139
     11          1           0       -0.586287    1.443447    0.888604
     12          1           0       -0.581984    1.403111   -0.862778
     13          6           0        1.060378    0.350865    0.041557
     14          6           0        2.042051    1.252641   -0.397743
     15          6           0        1.485112   -0.893480    0.527547
     16          6           0        3.396067    0.925705   -0.357308
     17          1           0        1.734796    2.224135   -0.778967
     18          6           0        2.841596   -1.228335    0.565496
     19          1           0        0.758717   -1.617148    0.888242
     20          6           0        3.802978   -0.320822    0.124196
     21          1           0        4.134336    1.643447   -0.705621
     22          1           0        3.143124   -2.201726    0.943996
     23          1           0        4.857645   -0.580747    0.153191
 ---------------------------------------------------------------------
                    Distance matrix (angstroms):
                    1          2          3          4          5
     1  C    0.000000
     2  H    1.108315   0.000000
     3  N    1.466809   2.163205   0.000000
     4  H    2.041224   2.477397   1.018086   0.000000
     5  H    2.051904   2.428526   1.017287   1.642127   0.000000
     6  C    1.526347   2.097897   2.435670   3.324972   2.655164
     7  O    2.447237   2.995265   3.486415   4.329776   3.827822
     8  O    2.379886   2.689837   2.717182   3.673620   2.408932
     9  H    3.212368   3.531394   3.623188   4.606466   3.332556
    10  C    1.531202   2.160452   2.465863   2.649255   3.353957
    11  H    2.139938   2.488764   3.389429   3.672348   4.164358
    12  H    2.139108   3.053941   2.657502   2.935112   3.609655
    13  C    2.585226   2.824851   3.102898   2.739963   3.999902
    14  C    3.845900   4.204971   4.235797   3.818227   5.200094
    15  C    3.008648   2.793670   3.352052   2.733977   4.021065
    16  C    5.006764   5.201566   5.261056   4.641183   6.166348
    17  H    4.155074   4.705001   4.582833   4.344479   5.590733
    18  C    4.396729   4.144354   4.577861   3.795904   5.208333
    19  H    2.673649   2.141787   3.030058   2.510745   3.464676
    20  C    5.235874   5.183661   5.408542   4.637215   6.175175
    21  H    5.955784   6.224162   6.185005   5.586416   7.121403
    22  H    5.022015   4.592162   5.123512   4.298349   5.590636
    23  H    6.295665   6.195700   6.406118   5.578856   7.133123
                    6          7          8          9         10
     6  C    0.000000
     7  O    1.209777   0.000000
     8  O    1.357410   2.250610   0.000000
     9  H    1.878998   2.278281   0.975721   0.000000
    10  C    2.509100   2.826857   3.705073   4.379378   0.000000
    11  H    2.636732   2.554189   3.951070   4.465032   1.097003
    12  H    2.756390   2.890813   3.934511   4.505354   1.095751
    13  C    3.901618   4.326828   4.957461   5.737459   1.520855
    14  C    5.019389   5.240950   6.159999   6.876981   2.516487
    15  C    4.478108   5.129369   5.295163   6.171430   2.574013
    16  C    6.295585   6.586313   7.371758   8.142405   3.812971
    17  H    5.080802   5.094032   6.299178   6.909235   2.690371
    18  C    5.874776   6.500977   6.666632   7.557270   3.853143
    19  H    4.101649   4.908472   4.711883   5.616624   2.806327
    20  C    6.663133   7.134314   7.595892   8.445810   4.344088
    21  H    7.169408   7.358347   8.290477   9.022950   4.666714
    22  H    6.499449   7.220390   7.144544   8.061933   4.724452
    23  H    7.737455   8.217620   8.641865   9.505430   5.430559
                   11         12         13         14         15
    11  H    0.000000
    12  H    1.751852   0.000000
    13  C    2.150053   2.149976   0.000000
    14  C    2.932449   2.669168   1.403519   0.000000
    15  C    3.143610   3.388247   1.401777   2.402536   0.000000
    16  C    4.204699   4.038354   2.438232   1.393514   2.782832
    17  H    2.962717   2.459385   2.153425   1.087905   3.389520
    18  C    4.358119   4.548118   2.437442   2.778910   1.397718
    19  H    3.343094   3.739721   2.163550   3.396527   1.086943
    20  C    4.791932   4.813933   2.824862   2.418485   2.421391
    21  H    4.986565   4.725054   3.417347   2.150622   3.869766
    22  H    5.215253   5.489600   3.415838   3.865912   2.152659
    23  H    5.854450   5.878558   3.911470   3.404763   3.407627
                   16         17         18         19         20
    16  C    0.000000
    17  H    2.150241   0.000000
    18  C    2.408089   3.866799   0.000000
    19  H    3.869510   4.299741   2.143298   0.000000
    20  C    1.396872   3.401454   1.393765   3.395843   0.000000
    21  H    1.086976   2.469893   3.396181   4.956479   2.157950
    22  H    3.396792   4.953810   1.087047   2.455654   2.155291
    23  H    2.160143   4.299822   2.157271   4.291345   1.086611
                   21         22         23
    21  H    0.000000
    22  H    4.299895   0.000000
    23  H    2.491540   2.488479   0.000000
 Stoichiometry    C9H11NO2
 Framework group  C1[X(C9H11NO2)]
 Deg. of freedom    63
 Full point group                 C1      NOp   1
 Largest Abelian subgroup         C1      NOp   1
 Largest concise Abelian subgroup C1      NOp   1
                         Standard orientation:                         
 ---------------------------------------------------------------------
 Center     Atomic      Atomic             Coordinates (Angstroms)
 Number     Number       Type             X           Y           Z
 ---------------------------------------------------------------------
      1          6           0        1.432357   -0.334400   -0.050296
      2          1           0        1.274338   -0.947246   -0.960138
      3          7           0        1.382832   -1.109073    1.194275
      4          1           0        0.447721   -1.494583    1.310241
      5          1           0        2.032999   -1.889952    1.145445
      6          6           0        2.835685    0.241798   -0.218826
      7          8           0        3.114448    1.376863   -0.531042
      8          8           0        3.782178   -0.710012   -0.016909
      9          1           0        4.642642   -0.268215   -0.145160
     10          6           0        0.395107    0.791724   -0.027139
     11          1           0        0.586287    1.443447   -0.888604
     12          1           0        0.581984    1.403111    0.862778
     13          6           0       -1.060378    0.350865   -0.041557
     14          6           0       -2.042051    1.252641    0.397743
     15          6           0       -1.485112   -0.893480   -0.527547
     16          6           0       -3.396067    0.925705    0.357308
     17          1           0       -1.734796    2.224135    0.778967
     18          6           0       -2.841596   -1.228335   -0.565496
     19          1           0       -0.758717   -1.617148   -0.888242
     20          6           0       -3.802978   -0.320822   -0.124196
     21          1           0       -4.134336    1.643447    0.705621
     22          1           0       -3.143124   -2.201726   -0.943996
     23          1           0       -4.857645   -0.580747   -0.153191
 ---------------------------------------------------------------------
 Rotational constants (GHZ):           2.5863883           0.4358138           0.3989931
 Standard basis: 6-31G(d) (6D, 7F)
 There are   202 symmetry adapted cartesian basis functions of A   symmetry.
 There are   202 symmetry adapted basis functions of A   symmetry.
   202 basis functions,   380 primitive gaussians,   202 cartesian basis functions
    44 alpha electrons       44 beta electrons
       nuclear repulsion energy       664.0816922976 Hartrees.
 NAtoms=   23 NActive=   23 NUniq=   23 SFac= 1.00D+00 NAtFMM=   60 NAOKFM=F Big=F
 Integral buffers will be    131072 words long.
 Regular integral format.
 Two-electron integral symmetry is turned on.
 One-electron integrals computed using PRISM.
 NBasis=   202 RedAO= T EigKep=  4.59D-04  NBF=   202
 NBsUse=   202 1.00D-06 EigRej= -1.00D+00 NBFU=   202
 ExpMin= 1.61D-01 ExpMax= 5.48D+03 ExpMxC= 8.25D+02 IAcc=3 IRadAn=         5 AccDes= 0.00D+00
 Harris functional with IExCor=  402 and IRadAn=       5 diagonalized for initial guess.
 HarFok:  IExCor=  402 AccDes= 0.00D+00 IRadAn=         5 IDoV= 1 UseB2=F ITyADJ=14
 ICtDFT=  3500011 ScaDFX=  1.000000  1.000000  1.000000  1.000000
 FoFCou: FMM=F IPFlag=           0 FMFlag=      100000 FMFlg1=           0
         NFxFlg=           0 DoJE=T BraDBF=F KetDBF=T FulRan=T
         wScrn=  0.000000 ICntrl=       500 IOpCl=  0 I1Cent=   200000004 NGrid=           0
         NMat0=    1 NMatS0=      1 NMatT0=    0 NMatD0=    1 NMtDS0=    0 NMtDT0=    0
 Petite list used in FoFCou.
 Requested convergence on RMS density matrix=1.00D-08 within 128 cycles.
 Requested convergence on MAX density matrix=1.00D-06.
 Requested convergence on             energy=1.00D-06.
 No special actions if energy rises.
 Integral accuracy reduced to 1.0D-05 until final iterations.
 Initial convergence to 1.0D-05 achieved.  Increase integral accuracy.
 SCF Done:  E(RB3LYP) =  -554.783324480     A.U. after   14 cycles
            NFock= 14  Conv=0.48D-08     -V/T= 2.0094
 DoSCS=F DFT=T ScalE2(SS,OS)=  1.000000  1.000000
 ExpMin= 1.61D-01 ExpMax= 5.48D+03 ExpMxC= 8.25D+02 IAcc=3 IRadAn=         5 AccDes= 0.00D+00
 HarFok:  IExCor=  205 AccDes= 0.00D+00 IRadAn=         5 IDoV=-2 UseB2=F ITyADJ=14
 ICtDFT= 12500011 ScaDFX=  1.000000  1.000000  1.000000  1.000000
 Range of M.O.s used for correlation:    13   202
 NBasis=   202 NAE=    44 NBE=    44 NFC=    12 NFV=     0
 NROrb=    190 NOA=    32 NOB=    32 NVA=   158 NVB=   158
 Keep R1, R2, and R3 ints in memory in canonical form, NReq=656629584.
 Orbital symmetries:
       Occupied  (A) (A) (A) (A) (A) (A) (A) (A) (A) (A) (A) (A)
                 (A) (A) (A) (A) (A) (A) (A) (A) (A) (A) (A) (A)
                 (A) (A) (A) (A) (A) (A) (A) (A) (A) (A) (A) (A)
                 (A) (A) (A) (A) (A) (A) (A) (A)
       Virtual   (A) (A) (A) (A) (A) (A) (A) (A) (A) (A) (A) (A)
                 (A) (A) (A) (A) (A) (A) (A) (A) (A) (A) (A) (A)
                 (A) (A) (A) (A) (A) (A) (A) (A) (A) (A) (A) (A)
                 (A) (A) (A) (A) (A) (A) (A) (A) (A) (A) (A) (A)
                 (A) (A) (A) (A) (A) (A) (A) (A) (A) (A) (A) (A)
                 (A) (A) (A) (A) (A) (A) (A) (A) (A) (A) (A) (A)
                 (A) (A) (A) (A) (A) (A) (A) (A) (A) (A) (A) (A)
                 (A) (A) (A) (A) (A) (A) (A) (A) (A) (A) (A) (A)
                 (A) (A) (A) (A) (A) (A) (A) (A) (A) (A) (A) (A)
                 (A) (A) (A) (A) (A) (A) (A) (A) (A) (A) (A) (A)
                 (A) (A) (A) (A) (A) (A) (A) (A) (A) (A) (A) (A)
                 (A) (A) (A) (A) (A) (A) (A) (A) (A) (A) (A) (A)
                 (A) (A) (A) (A) (A) (A) (A) (A) (A) (A) (A) (A)
                 (A) (A)
    12 initial guesses have been made.
 Convergence on wavefunction:    0.001000000000000
 Iteration     1 Dimension    12 NMult     0 NNew     12
 CISAX will form    12 AO SS matrices at one time.
 New state      2 was old state      5
 Iteration     2 Dimension    18 NMult    12 NNew      6
 Iteration     3 Dimension    24 NMult    18 NNew      6
 Iteration     4 Dimension    30 NMult    24 NNew      6
 Iteration     5 Dimension    36 NMult    30 NNew      6
 Iteration     6 Dimension    38 NMult    36 NNew      2
 Iteration     7 Dimension    40 NMult    38 NNew      2
 Iteration     8 Dimension    42 NMult    40 NNew      2
 ***********************************************************************
 Excited states from <AA,BB:AA,BB> singles matrix:
 ***********************************************************************
 
 Ground to excited state transition densities written to RWF  633
 Ground to excited state transition electric dipole moments (Au):
       state          X           Y           Z        Dip. S.      Osc.
         1         0.0909     -0.0961     -0.0116      0.0176      0.0023
         2         0.0684      0.0616      0.0591      0.0120      0.0016
         3         0.1793     -0.0533      0.0595      0.0385      0.0055
 Ground to excited state transition velocity dipole moments (Au):
       state          X           Y           Z        Dip. S.      Osc.
         1        -0.0182      0.0176      0.0017      0.0006      0.0022
         2        -0.0101     -0.0146     -0.0128      0.0005      0.0016
         3        -0.0322      0.0066     -0.0179      0.0014      0.0044
 Ground to excited state transition magnetic dipole moments (Au):
       state          X           Y           Z
         1        -0.0337      0.0509     -0.2683
         2        -0.2695     -0.2038      0.1867
         3         0.0241     -0.2147     -0.1641
 Ground to excited state transition velocity quadrupole moments (Au):
       state          XX          YY          ZZ          XY          XZ          YZ
         1         0.0593     -0.0026     -0.0071     -0.1150     -0.0584      0.0080
         2        -0.0909     -0.0449      0.1050     -0.0548      0.0322      0.0585
         3         0.0120      0.0785     -0.0398     -0.0355     -0.0909      0.0467
 <0|del|b> * <b|rxdel|0> + <0|del|b> * <b|delr+rdel|0>
 Rotatory Strengths (R) in cgs (10**-40 erg-esu-cm/Gauss)
       state          XX          YY          ZZ    R(velocity)    E-M Angle
         1         2.2325      0.3574      1.1219      1.2373       81.42
         2         3.1096     -1.6950     10.2801      3.8982       66.94
         3         4.5757      0.0480     -2.1373      0.8288       85.76
 1/2[<0|r|b>*<b|rxdel|0> + (<0|rxdel|b>*<b|r|0>)*]
 Rotatory Strengths (R) in cgs (10**-40 erg-esu-cm/Gauss)
       state          XX          YY          ZZ     R(length)
         1         2.1662      3.4630     -2.2041      1.1417
         2        13.0328      8.8717     -7.7988      4.7019
         3        -3.0579     -8.0952      6.9012     -1.4173
  1/2[<0|del|b>*<b|r|0> + (<0|r|b>*<b|del|0>)*] (Au)
       state          X           Y           Z        Dip. S.   Osc.(frdel)
         1        -0.0017     -0.0017     -0.0000      0.0034      0.0022
         2        -0.0007     -0.0009     -0.0008      0.0023      0.0016
         3        -0.0058     -0.0004     -0.0011      0.0072      0.0048

 Excitation energies and oscillator strengths:
 
 Excited State   1:      Singlet-A      5.3946 eV  229.83 nm  f=0.0023  <S**2>=0.000
      42 -> 45        -0.15170
      42 -> 46         0.33218
      42 -> 47         0.12705
      43 -> 45        -0.29052
      43 -> 46        -0.27460
      44 -> 45         0.41793
 This state for optimization and/or second-order correction.
 Total Energy, E(TD-HF/TD-DFT) =  -554.585077859    
 Copying the excited state density for this state as the 1-particle RhoCI density.
 
 Excited State   2:      Singlet-A      5.4353 eV  228.11 nm  f=0.0016  <S**2>=0.000
      41 -> 46         0.10733
      41 -> 47        -0.20477
      42 -> 46        -0.14186
      42 -> 47         0.11073
      43 -> 46        -0.18917
      43 -> 47         0.29291
      44 -> 45        -0.14998
      44 -> 46        -0.32640
      44 -> 47         0.39864
 
 Excited State   3:      Singlet-A      5.8166 eV  213.15 nm  f=0.0055  <S**2>=0.000
      41 -> 47        -0.12754
      42 -> 45         0.13357
      43 -> 45         0.42225
      43 -> 47         0.15741
      44 -> 45         0.44094
      44 -> 46         0.18681
      44 -> 47         0.12483
 SavETr:  write IOETrn=   770 NScale= 10 NData=  16 NLR=1 NState=    3 LETran=      64.

 **********************************************************************

            Population analysis using the SCF Density.

 **********************************************************************

 Orbital symmetries:
       Occupied  (A) (A) (A) (A) (A) (A) (A) (A) (A) (A) (A) (A)
                 (A) (A) (A) (A) (A) (A) (A) (A) (A) (A) (A) (A)
                 (A) (A) (A) (A) (A) (A) (A) (A) (A) (A) (A) (A)
                 (A) (A) (A) (A) (A) (A) (A) (A)
       Virtual   (A) (A) (A) (A) (A) (A) (A) (A) (A) (A) (A) (A)
                 (A) (A) (A) (A) (A) (A) (A) (A) (A) (A) (A) (A)
                 (A) (A) (A) (A) (A) (A) (A) (A) (A) (A) (A) (A)
                 (A) (A) (A) (A) (A) (A) (A) (A) (A) (A) (A) (A)
                 (A) (A) (A) (A) (A) (A) (A) (A) (A) (A) (A) (A)
                 (A) (A) (A) (A) (A) (A) (A) (A) (A) (A) (A) (A)
                 (A) (A) (A) (A) (A) (A) (A) (A) (A) (A) (A) (A)
                 (A) (A) (A) (A) (A) (A) (A) (A) (A) (A) (A) (A)
                 (A) (A) (A) (A) (A) (A) (A) (A) (A) (A) (A) (A)
                 (A) (A) (A) (A) (A) (A) (A) (A) (A) (A) (A) (A)
                 (A) (A) (A) (A) (A) (A) (A) (A) (A) (A) (A) (A)
                 (A) (A) (A) (A) (A) (A) (A) (A) (A) (A) (A) (A)
                 (A) (A) (A) (A) (A) (A) (A) (A) (A) (A) (A) (A)
                 (A) (A)
 The electronic state is 1-A.
 Alpha  occ. eigenvalues --  -19.20108 -19.14405 -14.31917 -10.32264 -10.23457
 Alpha  occ. eigenvalues --  -10.20010 -10.19162 -10.19055 -10.19049 -10.18982
 Alpha  occ. eigenvalues --  -10.18894 -10.18742  -1.10934  -1.01892  -0.89638
 Alpha  occ. eigenvalues --   -0.85335  -0.77760  -0.74395  -0.72847  -0.67183
 Alpha  occ. eigenvalues --   -0.61059  -0.59684  -0.56613  -0.51839  -0.50453
 Alpha  occ. eigenvalues --   -0.49325  -0.48614  -0.46137  -0.45275  -0.44853
 Alpha  occ. eigenvalues --   -0.42363  -0.41708  -0.41263  -0.39312  -0.38720
 Alpha  occ. eigenvalues --   -0.36971  -0.35152  -0.33901  -0.33615  -0.32282
 Alpha  occ. eigenvalues --   -0.28293  -0.25191  -0.24352  -0.23844
 Alpha virt. eigenvalues --   -0.00317  -0.00189   0.00703   0.06767   0.09157
 Alpha virt. eigenvalues --    0.10498   0.12340   0.13200   0.14250   0.15802
 Alpha virt. eigenvalues --    0.16207   0.16702   0.18517   0.19551   0.20009
 Alpha virt. eigenvalues --    0.22178   0.23010   0.25698   0.26655   0.30079
 Alpha virt. eigenvalues --    0.31758   0.32007   0.34017   0.35888   0.39769
 Alpha virt. eigenvalues --    0.47484   0.51755   0.52528   0.53693   0.55385
 Alpha virt. eigenvalues --    0.55597   0.56596   0.58350   0.58697   0.59540
 Alpha virt. eigenvalues --    0.60226   0.61326   0.61480   0.61993   0.63279
 Alpha virt. eigenvalues --    0.64617   0.66259   0.68182   0.68283   0.69315
 Alpha virt. eigenvalues --    0.71710   0.74175   0.75771   0.77394   0.80761
 Alpha virt. eigenvalues --    0.80960   0.83262   0.83524   0.84250   0.85020
 Alpha virt. eigenvalues --    0.86600   0.89033   0.89925   0.90235   0.90827
 Alpha virt. eigenvalues --    0.91705   0.92882   0.94686   0.95777   0.98344
 Alpha virt. eigenvalues --    0.99019   0.99671   1.02002   1.03092   1.06831
 Alpha virt. eigenvalues --    1.07829   1.10930   1.12060   1.15420   1.15605
 Alpha virt. eigenvalues --    1.19042   1.20460   1.24323   1.25735   1.29968
 Alpha virt. eigenvalues --    1.33353   1.40532   1.43044   1.43773   1.44751
 Alpha virt. eigenvalues --    1.48230   1.49241   1.51134   1.51884   1.54012
 Alpha virt. eigenvalues --    1.58083   1.64487   1.67665   1.69982   1.74657
 Alpha virt. eigenvalues --    1.76618   1.77525   1.79754   1.81966   1.82224
 Alpha virt. eigenvalues --    1.84119   1.86709   1.89105   1.91018   1.92356
 Alpha virt. eigenvalues --    1.94637   1.96866   1.98130   2.00821   2.01282
 Alpha virt. eigenvalues --    2.05224   2.05954   2.09953   2.13633   2.14251
 Alpha virt. eigenvalues --    2.15228   2.16479   2.19774   2.21958   2.25488
 Alpha virt. eigenvalues --    2.27949   2.31101   2.34776   2.37418   2.38972
 Alpha virt. eigenvalues --    2.40970   2.45083   2.53539   2.54170   2.56548
 Alpha virt. eigenvalues --    2.58481   2.59959   2.63385   2.65441   2.67569
 Alpha virt. eigenvalues --    2.72243   2.75181   2.75737   2.78855   2.79657
 Alpha virt. eigenvalues --    2.86760   2.91870   2.98455   3.05725   3.13911
 Alpha virt. eigenvalues --    3.40835   3.79952   3.84914   4.08854   4.11610
 Alpha virt. eigenvalues --    4.12690   4.13394   4.27273   4.33292   4.35218
 Alpha virt. eigenvalues --    4.43046   4.60079   4.71420
          Condensed to atoms (all electrons):
               1          2          3          4          5          6
     1  C    5.127605   0.344554   0.289425  -0.032032  -0.025691   0.298254
     2  H    0.344554   0.652660  -0.047747  -0.004904  -0.004081  -0.040250
     3  N    0.289425  -0.047747   6.979036   0.302788   0.302669  -0.040607
     4  H   -0.032032  -0.004904   0.302788   0.438787  -0.028474   0.005268
     5  H   -0.025691  -0.004081   0.302669  -0.028474   0.434093  -0.009730
     6  C    0.298254  -0.040250  -0.040607   0.005268  -0.009730   4.350342
     7  O   -0.081935   0.001328   0.001070  -0.000092   0.000075   0.573283
     8  O   -0.096053   0.000212  -0.001117   0.000075   0.010472   0.284929
     9  H    0.011300  -0.000609  -0.000404   0.000030  -0.000275  -0.007752
    10  C    0.334617  -0.051066  -0.062703  -0.007728   0.006480  -0.028057
    11  H   -0.033333   0.000510   0.004590   0.000086  -0.000233  -0.003752
    12  H   -0.033942   0.006854   0.003800  -0.001116  -0.000116  -0.006117
    13  C   -0.029884  -0.005988  -0.002154   0.006857  -0.000107   0.004394
    14  C    0.002580  -0.000032  -0.000036  -0.000077   0.000008  -0.000106
    15  C   -0.000928   0.001530  -0.003872   0.008689   0.000065   0.000315
    16  C   -0.000154   0.000004   0.000003  -0.000046  -0.000000   0.000001
    17  H    0.000163   0.000003  -0.000007  -0.000002   0.000000  -0.000005
    18  C    0.000071  -0.000012  -0.000104  -0.000109   0.000006  -0.000004
    19  H    0.004861   0.001933   0.000747   0.000852   0.000202  -0.000035
    20  C    0.000011  -0.000006   0.000003  -0.000021   0.000000   0.000000
    21  H    0.000002   0.000000   0.000000  -0.000000   0.000000  -0.000000
    22  H    0.000003   0.000009  -0.000002  -0.000003  -0.000000  -0.000000
    23  H   -0.000000   0.000000   0.000000  -0.000000  -0.000000  -0.000000
               7          8          9         10         11         12
     1  C   -0.081935  -0.096053   0.011300   0.334617  -0.033333  -0.033942
     2  H    0.001328   0.000212  -0.000609  -0.051066   0.000510   0.006854
     3  N    0.001070  -0.001117  -0.000404  -0.062703   0.004590   0.003800
     4  H   -0.000092   0.000075   0.000030  -0.007728   0.000086  -0.001116
     5  H    0.000075   0.010472  -0.000275   0.006480  -0.000233  -0.000116
     6  C    0.573283   0.284929  -0.007752  -0.028057  -0.003752  -0.006117
     7  O    8.029222  -0.084171   0.011515   0.003027   0.008046   0.002480
     8  O   -0.084171   8.247307   0.217480   0.002585   0.000169  -0.000029
     9  H    0.011515   0.217480   0.357292  -0.000270  -0.000021  -0.000018
    10  C    0.003027   0.002585  -0.000270   5.229476   0.351775   0.353299
    11  H    0.008046   0.000169  -0.000021   0.351775   0.556317  -0.028012
    12  H    0.002480  -0.000029  -0.000018   0.353299  -0.028012   0.562538
    13  C    0.000741  -0.000012   0.000001   0.330751  -0.029423  -0.031876
    14  C   -0.000004   0.000000  -0.000000  -0.050952  -0.003949  -0.005234
    15  C   -0.000001  -0.000002   0.000000  -0.071324  -0.000941   0.003256
    16  C   -0.000000  -0.000000   0.000000   0.006048  -0.000135   0.000156
    17  H    0.000002   0.000000  -0.000000  -0.009428   0.000763   0.004951
    18  C   -0.000000  -0.000000   0.000000   0.006764  -0.000122  -0.000135
    19  H    0.000002   0.000002  -0.000000  -0.011350   0.000143   0.000021
    20  C    0.000000  -0.000000   0.000000   0.000321   0.000036   0.000009
    21  H    0.000000   0.000000  -0.000000  -0.000177   0.000002  -0.000007
    22  H   -0.000000   0.000000  -0.000000  -0.000177   0.000002   0.000003
    23  H    0.000000  -0.000000  -0.000000   0.000008  -0.000000  -0.000000
              13         14         15         16         17         18
     1  C   -0.029884   0.002580  -0.000928  -0.000154   0.000163   0.000071
     2  H   -0.005988  -0.000032   0.001530   0.000004   0.000003  -0.000012
     3  N   -0.002154  -0.000036  -0.003872   0.000003  -0.000007  -0.000104
     4  H    0.006857  -0.000077   0.008689  -0.000046  -0.000002  -0.000109
     5  H   -0.000107   0.000008   0.000065  -0.000000   0.000000   0.000006
     6  C    0.004394  -0.000106   0.000315   0.000001  -0.000005  -0.000004
     7  O    0.000741  -0.000004  -0.000001  -0.000000   0.000002  -0.000000
     8  O   -0.000012   0.000000  -0.000002  -0.000000   0.000000  -0.000000
     9  H    0.000001  -0.000000   0.000000   0.000000  -0.000000   0.000000
    10  C    0.330751  -0.050952  -0.071324   0.006048  -0.009428   0.006764
    11  H   -0.029423  -0.003949  -0.000941  -0.000135   0.000763  -0.000122
    12  H   -0.031876  -0.005234   0.003256   0.000156   0.004951  -0.000135
    13  C    4.676231   0.540354   0.541072  -0.016598  -0.047330  -0.017763
    14  C    0.540354   4.960132  -0.038544   0.526307   0.357265  -0.045341
    15  C    0.541072  -0.038544   4.994449  -0.047088   0.006372   0.517507
    16  C   -0.016598   0.526307  -0.047088   4.866395  -0.046022  -0.026737
    17  H   -0.047330   0.357265   0.006372  -0.046022   0.605802   0.000330
    18  C   -0.017763  -0.045341   0.517507  -0.026737   0.000330   4.871134
    19  H   -0.049650   0.005908   0.353306   0.000431  -0.000178  -0.044526
    20  C   -0.035165  -0.035092  -0.035018   0.546671   0.004943   0.554025
    21  H    0.003767  -0.039385   0.000821   0.356970  -0.005756   0.004629
    22  H    0.003595   0.000883  -0.039764   0.004557   0.000018   0.356248
    23  H    0.000737   0.004557   0.004755  -0.042951  -0.000179  -0.042946
              19         20         21         22         23
     1  C    0.004861   0.000011   0.000002   0.000003  -0.000000
     2  H    0.001933  -0.000006   0.000000   0.000009   0.000000
     3  N    0.000747   0.000003   0.000000  -0.000002   0.000000
     4  H    0.000852  -0.000021  -0.000000  -0.000003  -0.000000
     5  H    0.000202   0.000000   0.000000  -0.000000  -0.000000
     6  C   -0.000035   0.000000  -0.000000  -0.000000  -0.000000
     7  O    0.000002   0.000000   0.000000  -0.000000   0.000000
     8  O    0.000002  -0.000000   0.000000   0.000000  -0.000000
     9  H   -0.000000   0.000000  -0.000000  -0.000000  -0.000000
    10  C   -0.011350   0.000321  -0.000177  -0.000177   0.000008
    11  H    0.000143   0.000036   0.000002   0.000002  -0.000000
    12  H    0.000021   0.000009  -0.000007   0.000003  -0.000000
    13  C   -0.049650  -0.035165   0.003767   0.003595   0.000737
    14  C    0.005908  -0.035092  -0.039385   0.000883   0.004557
    15  C    0.353306  -0.035018   0.000821  -0.039764   0.004755
    16  C    0.000431   0.546671   0.356970   0.004557  -0.042951
    17  H   -0.000178   0.004943  -0.005756   0.000018  -0.000179
    18  C   -0.044526   0.554025   0.004629   0.356248  -0.042946
    19  H    0.615131   0.004816   0.000018  -0.005717  -0.000188
    20  C    0.004816   4.851803  -0.043621  -0.042667   0.358857
    21  H    0.000018  -0.043621   0.597270  -0.000192  -0.005491
    22  H   -0.005717  -0.042667  -0.000192   0.599523  -0.005529
    23  H   -0.000188   0.358857  -0.005491  -0.005529   0.598972
 Mulliken charges:
               1
     1  C   -0.079493
     2  H    0.145098
     3  N   -0.725378
     4  H    0.311174
     5  H    0.314637
     6  C    0.619629
     7  O   -0.464588
     8  O   -0.581845
     9  H    0.411730
    10  C   -0.331920
    11  H    0.177481
    12  H    0.169234
    13  C    0.157449
    14  C   -0.179244
    15  C   -0.194656
    16  C   -0.127813
    17  H    0.128296
    18  C   -0.132915
    19  H    0.123272
    20  C   -0.129904
    21  H    0.131148
    22  H    0.129211
    23  H    0.129398
 Sum of Mulliken charges =  -0.00000
 Mulliken charges with hydrogens summed into heavy atoms:
               1
     1  C    0.065605
     3  N   -0.099567
     6  C    0.619629
     7  O   -0.464588
     8  O   -0.170115
    10  C    0.014795
    13  C    0.157449
    14  C   -0.050948
    15  C   -0.071384
    16  C    0.003336
    18  C   -0.003705
    20  C   -0.000506
 Electronic spatial extent (au):  <R**2>=           2698.3287
 Charge=             -0.0000 electrons
 Dipole moment (field-independent basis, Debye):
    X=             -0.3559    Y=             -2.0053    Z=             -0.4896  Tot=              2.0947
 Quadrupole moment (field-independent basis, Debye-Ang):
   XX=            -60.1756   YY=            -67.9087   ZZ=            -73.7950
   XY=             -5.0326   XZ=             -1.4471   YZ=              2.8777
 Traceless Quadrupole moment (field-independent basis, Debye-Ang):
   XX=              7.1175   YY=             -0.6156   ZZ=             -6.5019
   XY=             -5.0326   XZ=             -1.4471   YZ=              2.8777
 Octapole moment (field-independent basis, Debye-Ang**2):
  XXX=             64.0930  YYY=            -11.4961  ZZZ=             -5.2317  XYY=             -5.4154
  XXY=            -15.1621  XXZ=              1.6800  XZZ=             12.9657  YZZ=             -1.0030
  YYZ=              6.4188  XYZ=             -1.8978
 Hexadecapole moment (field-independent basis, Debye-Ang**3):
 XXXX=          -2274.7095 YYYY=           -449.7431 ZZZZ=           -204.6623 XXXY=            -43.2169
 XXXZ=            -16.1399 YYYX=            -24.5582 YYYZ=             -1.0969 ZZZX=            -17.0414
 ZZZY=             -5.1910 XXYY=           -567.6007 XXZZ=           -526.1976 YYZZ=           -102.7794
 XXYZ=             31.6000 YYXZ=             11.6649 ZZXY=             -0.3343
 N-N= 6.640816922976D+02 E-N=-2.620020927178D+03  KE= 5.496204115898D+02
 Unable to Open any file for archive entry.
 1\1\GINC-CCC115\SP\RB3LYP TD-FC\6-31G(d)\C9H11N1O2\ROOT\21-Feb-2025\0\
 \# td=(nstat=3) b3lyp/6-31g(d)\\phe | No.8\\0,1\C,0,-1.432357,-0.3344,
 0.050296\H,0,-1.274338,-0.947246,0.960138\N,0,-1.382832,-1.109073,-1.1
 94275\H,0,-0.447721,-1.494583,-1.310241\H,0,-2.032999,-1.889952,-1.145
 445\C,0,-2.835685,0.241798,0.218826\O,0,-3.114448,1.376863,0.531042\O,
 0,-3.782178,-0.710012,0.016909\H,0,-4.642642,-0.268215,0.14516\C,0,-0.
 395107,0.791724,0.027139\H,0,-0.586287,1.443447,0.888604\H,0,-0.581984
 ,1.403111,-0.862778\C,0,1.060378,0.350865,0.041557\C,0,2.042051,1.2526
 41,-0.397743\C,0,1.485112,-0.89348,0.527547\C,0,3.396067,0.925705,-0.3
 57308\H,0,1.734796,2.224135,-0.778967\C,0,2.841596,-1.228335,0.565496\
 H,0,0.758717,-1.617148,0.888242\C,0,3.802978,-0.320822,0.124196\H,0,4.
 134336,1.643447,-0.705621\H,0,3.143124,-2.201726,0.943996\H,0,4.857645
 ,-0.580747,0.153191\\Version=ES64L-G16RevC.02\State=1-A\HF=-554.783324
 5\RMSD=4.830e-09\PG=C01 [X(C9H11N1O2)]\\@
 The archive entry for this job was punched.


 THERE IS MORE TO LIFE THAN INCREASING ITS SPEED.

                                       -- GANDHI
 Job cpu time:       0 days  0 hours 17 minutes 24.0 seconds.
 Elapsed time:       0 days  0 hours  2 minutes 17.2 seconds.
 File lengths (MBytes):  RWF=    272 Int=      0 D2E=      0 Chk=      8 Scr=      1
 Normal termination of Gaussian 16 at Fri Feb 21 15:16:33 2025.
