 Entering Gaussian System, Link 0=/apl/gaussian/16c02/g16/._.g16
 Initial command:
 /apl/gaussian/16c02/g16/l1.exe "/lwork/users/ux8/8287077.ccpbs1/gaussian/Gau-547810.inp" -scrdir="/lwork/users/ux8/8287077.ccpbs1/gaussian/"
 Default CPUs for threads: 40,41,42,43,44,45,46,47
 Default is to use a total of   8 processors:
                                8 via shared-memory
                                1 via Linda
 Entering Link 1 = /apl/gaussian/16c02/g16/l1.exe PID=    547811.
  
 Copyright (c) 1988-2021, Gaussian, Inc.  All Rights Reserved.
  
 This is part of the Gaussian(R) 16 program.  It is based on
 the Gaussian(R) 09 system (copyright 2009, Gaussian, Inc.),
 the Gaussian(R) 03 system (copyright 2003, Gaussian, Inc.),
 the Gaussian(R) 98 system (copyright 1998, Gaussian, Inc.),
 the Gaussian(R) 94 system (copyright 1995, Gaussian, Inc.),
 the Gaussian 92(TM) system (copyright 1992, Gaussian, Inc.),
 the Gaussian 90(TM) system (copyright 1990, Gaussian, Inc.),
 the Gaussian 88(TM) system (copyright 1988, Gaussian, Inc.),
 the Gaussian 86(TM) system (copyright 1986, Carnegie Mellon
 University), and the Gaussian 82(TM) system (copyright 1983,
 Carnegie Mellon University). Gaussian is a federally registered
 trademark of Gaussian, Inc.
  
 This software contains proprietary and confidential information,
 including trade secrets, belonging to Gaussian, Inc.
  
 This software is provided under written license and may be
 used, copied, transmitted, or stored only in accord with that
 written license.
  
 The following legend is applicable only to US Government
 contracts under FAR:
  
                    RESTRICTED RIGHTS LEGEND
  
 Use, reproduction and disclosure by the US Government is
 subject to restrictions as set forth in subparagraphs (a)
 and (c) of the Commercial Computer Software - Restricted
 Rights clause in FAR 52.227-19.
  
 Gaussian, Inc.
 340 Quinnipiac St., Bldg. 40, Wallingford CT 06492
  
  
 ---------------------------------------------------------------
 Warning -- This program may not be used in any manner that
 competes with the business of Gaussian, Inc. or will provide
 assistance to any competitor of Gaussian, Inc.  The licensee
 of this program is prohibited from giving any competitor of
 Gaussian, Inc. access to this program.  By using this program,
 the user acknowledges that Gaussian, Inc. is engaged in the
 business of creating and licensing software in the field of
 computational chemistry and represents and warrants to the
 licensee that it is not a competitor of Gaussian, Inc. and that
 it will not use this program in any manner prohibited above.
 ---------------------------------------------------------------
  

 Cite this work as:
 Gaussian 16, Revision C.02,
 M. J. Frisch, G. W. Trucks, H. B. Schlegel, G. E. Scuseria, 
 M. A. Robb, J. R. Cheeseman, G. Scalmani, V. Barone, 
 G. A. Petersson, H. Nakatsuji, X. Li, M. Caricato, A. V. Marenich, 
 J. Bloino, B. G. Janesko, R. Gomperts, B. Mennucci, H. P. Hratchian, 
 J. V. Ortiz, A. F. Izmaylov, J. L. Sonnenberg, D. Williams-Young, 
 F. Ding, F. Lipparini, F. Egidi, J. Goings, B. Peng, A. Petrone, 
 T. Henderson, D. Ranasinghe, V. G. Zakrzewski, J. Gao, N. Rega, 
 G. Zheng, W. Liang, M. Hada, M. Ehara, K. Toyota, R. Fukuda, 
 J. Hasegawa, M. Ishida, T. Nakajima, Y. Honda, O. Kitao, H. Nakai, 
 T. Vreven, K. Throssell, J. A. Montgomery, Jr., J. E. Peralta, 
 F. Ogliaro, M. J. Bearpark, J. J. Heyd, E. N. Brothers, K. N. Kudin, 
 V. N. Staroverov, T. A. Keith, R. Kobayashi, J. Normand, 
 K. Raghavachari, A. P. Rendell, J. C. Burant, S. S. Iyengar, 
 J. Tomasi, M. Cossi, J. M. Millam, M. Klene, C. Adamo, R. Cammi, 
 J. W. Ochterski, R. L. Martin, K. Morokuma, O. Farkas, 
 J. B. Foresman, and D. J. Fox, Gaussian, Inc., Wallingford CT, 2019.
 
 ******************************************
 Gaussian 16:  ES64L-G16RevC.02  7-Dec-2021
                21-Feb-2025 
 ******************************************
 %chk=phe.018.tddft.chk
 %mem=9600MB
 SetSPE:  set environment variable "OMP_PROC_BIND" = "true"
 SetSPE:  set environment variable "OMP_PLACES" = "{40},{41},{42},{43},{44},{45},{46},{47}"
 -----------------------------
 # td=(nstat=3) b3lyp/6-31g(d)
 -----------------------------
 1/38=1,172=1/1;
 2/12=2,17=6,18=5,40=1/2;
 3/5=1,6=6,7=1,11=9,25=1,30=1,74=-5/1,2,3,8;
 4//1;
 5/5=2,38=5/2;
 8/6=1,10=2,108=3/1;
 9/41=3,42=1,70=2/14;
 6/7=2,8=2,9=2,10=2/1;
 99/5=1,9=1/99;
 -----------
 phe | No.18
 -----------
 Symbolic Z-matrix:
 Charge =  0 Multiplicity = 1
 C                    -1.38918  -0.12444   0.32705 
 H                    -1.19448   0.29747   1.33376 
 N                    -1.27081  -1.58504   0.2861 
 H                    -0.35815  -1.84894   0.65226 
 H                    -1.97013  -2.00054   0.89754 
 C                    -2.82412   0.28417   0.00554 
 O                    -3.16226   1.21572  -0.68835 
 O                    -3.72333  -0.50485   0.64854 
 H                    -4.60491  -0.16655   0.40246 
 C                    -0.4149    0.54597  -0.66271 
 H                    -0.6267    1.61886  -0.67145 
 H                    -0.64625   0.16371  -1.66316 
 C                     1.04286   0.30195  -0.33184 
 C                     1.79748   1.27966   0.33137 
 C                     1.68154  -0.89321  -0.69931 
 C                     3.1415    1.06516   0.64043 
 H                     1.32569   2.22081   0.60603 
 C                     3.02525  -1.11185  -0.39092 
 H                     1.11918  -1.6503   -1.24012 
 C                     3.75966  -0.13403   0.28256 
 H                     3.70724   1.83835   1.15399 
 H                     3.50096  -2.04354  -0.68654 
 H                     4.80734  -0.30132   0.51798 
 
                          Input orientation:                          
 ---------------------------------------------------------------------
 Center     Atomic      Atomic             Coordinates (Angstroms)
 Number     Number       Type             X           Y           Z
 ---------------------------------------------------------------------
      1          6           0       -1.389175   -0.124439    0.327052
      2          1           0       -1.194480    0.297470    1.333763
      3          7           0       -1.270811   -1.585043    0.286100
      4          1           0       -0.358150   -1.848937    0.652262
      5          1           0       -1.970133   -2.000543    0.897544
      6          6           0       -2.824115    0.284173    0.005543
      7          8           0       -3.162258    1.215724   -0.688352
      8          8           0       -3.723331   -0.504850    0.648538
      9          1           0       -4.604905   -0.166552    0.402457
     10          6           0       -0.414899    0.545973   -0.662711
     11          1           0       -0.626697    1.618857   -0.671449
     12          1           0       -0.646253    0.163706   -1.663162
     13          6           0        1.042858    0.301947   -0.331837
     14          6           0        1.797482    1.279659    0.331370
     15          6           0        1.681536   -0.893205   -0.699309
     16          6           0        3.141500    1.065158    0.640432
     17          1           0        1.325690    2.220811    0.606033
     18          6           0        3.025252   -1.111851   -0.390920
     19          1           0        1.119180   -1.650299   -1.240118
     20          6           0        3.759661   -0.134030    0.282557
     21          1           0        3.707236    1.838345    1.153990
     22          1           0        3.500958   -2.043537   -0.686540
     23          1           0        4.807339   -0.301317    0.517976
 ---------------------------------------------------------------------
                    Distance matrix (angstroms):
                    1          2          3          4          5
     1  C    0.000000
     2  H    1.108774   0.000000
     3  N    1.465964   2.155755   0.000000
     4  H    2.035354   2.402281   1.018167   0.000000
     5  H    2.045175   2.464303   1.017622   1.637570   0.000000
     6  C    1.526232   2.102393   2.446515   3.324062   2.597090
     7  O    2.443544   2.967202   3.517304   4.364907   3.778968
     8  O    2.386703   2.740135   2.704262   3.623676   2.317931
     9  H    3.216890   3.565620   3.625167   4.574686   3.248178
    10  C    1.542173   2.157640   2.484765   2.732758   3.367179
    11  H    2.148827   2.467654   3.405401   3.721549   4.167327
    12  H    2.143808   3.049591   2.692177   3.081383   3.604698
    13  C    2.555528   2.789252   3.048875   2.749105   3.986346
    14  C    3.482283   3.304743   4.197974   3.812851   5.027445
    15  C    3.327715   3.717870   3.188420   2.626878   4.136523
    16  C    4.694717   4.457665   5.159225   4.554079   5.966022
    17  H    3.598405   3.252705   4.618300   4.404578   5.363512
    18  C    4.580134   4.771463   4.374748   3.616481   5.234862
    19  H    3.328080   3.971359   2.836487   2.408955   3.773079
    20  C    5.149037   5.082789   5.235561   4.475931   6.057443
    21  H    5.523563   5.141346   6.103587   5.511365   6.858232
    22  H    5.350113   5.622195   4.891424   4.089373   5.695964
    23  H    6.201977   6.086533   6.216561   5.394019   6.997540
                    6          7          8          9         10
     6  C    0.000000
     7  O    1.209801   0.000000
     8  O    1.358157   2.249989   0.000000
     9  H    1.879337   2.276353   0.975794   0.000000
    10  C    2.513847   2.827933   3.710704   4.381601   0.000000
    11  H    2.658636   2.567464   3.980156   4.490779   1.093625
    12  H    2.746301   2.896080   3.906320   4.477363   1.095698
    13  C    3.881703   4.317996   4.932404   5.714535   1.514623
    14  C    4.738809   5.063886   5.810718   6.564079   2.533993
    15  C    4.709982   5.282996   5.583914   6.423492   2.543150
    16  C    6.049924   6.444044   7.042080   7.847326   3.823050
    17  H    4.618662   4.777793   5.737913   6.396319   2.728451
    18  C    6.026704   6.617503   6.855093   7.729316   3.828432
    19  H    4.565460   5.181626   5.322498   6.137158   2.740512
    20  C    6.602858   7.118810   7.501108   8.365489   4.333923
    21  H    6.811235   7.139456   7.807648   8.583478   4.686430
    22  H    6.775231   7.417630   7.506020   8.391305   4.694685
    23  H    7.671015   8.201897   8.534096   9.413918   5.420673
                   11         12         13         14         15
    11  H    0.000000
    12  H    1.761063   0.000000
    13  C    2.153370   2.155141   0.000000
    14  C    2.645250   3.345945   1.401864   0.000000
    15  C    3.411623   2.732156   1.404042   2.407713   0.000000
    16  C    4.028266   4.523962   2.435590   1.395677   2.785962
    17  H    2.409590   3.642731   2.154445   1.088023   3.395238
    18  C    4.568610   4.089694   2.435611   2.783602   1.395881
    19  H    3.749514   2.566385   2.154545   3.393276   1.087157
    20  C    4.819012   4.825614   2.819322   2.418893   2.420539
    21  H    4.707800   5.449186   3.415715   2.153136   3.872924
    22  H    5.518233   4.798445   3.416045   3.870608   2.152608
    23  H    5.884772   5.891967   3.906076   3.404930   3.406282
                   16         17         18         19         20
    16  C    0.000000
    17  H    2.152646   0.000000
    18  C    2.411756   3.871571   0.000000
    19  H    3.872977   4.293764   2.155035   0.000000
    20  C    1.395797   3.402077   1.396088   3.404372   0.000000
    21  H    1.087022   2.473519   3.399339   4.959881   2.156944
    22  H    3.399125   4.958548   1.087072   2.476681   2.156918
    23  H    2.158071   4.300089   2.158447   4.302693   1.086755
                   21         22         23
    21  H    0.000000
    22  H    4.301059   0.000000
    23  H    2.488553   2.488538   0.000000
 Stoichiometry    C9H11NO2
 Framework group  C1[X(C9H11NO2)]
 Deg. of freedom    63
 Full point group                 C1      NOp   1
 Largest Abelian subgroup         C1      NOp   1
 Largest concise Abelian subgroup C1      NOp   1
                         Standard orientation:                         
 ---------------------------------------------------------------------
 Center     Atomic      Atomic             Coordinates (Angstroms)
 Number     Number       Type             X           Y           Z
 ---------------------------------------------------------------------
      1          6           0       -1.389175    0.124439   -0.327052
      2          1           0       -1.194480   -0.297470   -1.333763
      3          7           0       -1.270811    1.585043   -0.286100
      4          1           0       -0.358150    1.848937   -0.652262
      5          1           0       -1.970133    2.000543   -0.897544
      6          6           0       -2.824115   -0.284173   -0.005543
      7          8           0       -3.162258   -1.215724    0.688352
      8          8           0       -3.723331    0.504850   -0.648538
      9          1           0       -4.604905    0.166552   -0.402457
     10          6           0       -0.414899   -0.545973    0.662711
     11          1           0       -0.626697   -1.618857    0.671449
     12          1           0       -0.646253   -0.163706    1.663162
     13          6           0        1.042858   -0.301947    0.331837
     14          6           0        1.797482   -1.279659   -0.331370
     15          6           0        1.681536    0.893205    0.699309
     16          6           0        3.141500   -1.065158   -0.640432
     17          1           0        1.325690   -2.220811   -0.606033
     18          6           0        3.025252    1.111851    0.390920
     19          1           0        1.119180    1.650299    1.240118
     20          6           0        3.759661    0.134030   -0.282557
     21          1           0        3.707236   -1.838345   -1.153990
     22          1           0        3.500958    2.043537    0.686540
     23          1           0        4.807339    0.301317   -0.517976
 ---------------------------------------------------------------------
 Rotational constants (GHZ):           2.5151795           0.4442853           0.4071524
 Standard basis: 6-31G(d) (6D, 7F)
 There are   202 symmetry adapted cartesian basis functions of A   symmetry.
 There are   202 symmetry adapted basis functions of A   symmetry.
   202 basis functions,   380 primitive gaussians,   202 cartesian basis functions
    44 alpha electrons       44 beta electrons
       nuclear repulsion energy       665.4059919075 Hartrees.
 NAtoms=   23 NActive=   23 NUniq=   23 SFac= 1.00D+00 NAtFMM=   60 NAOKFM=F Big=F
 Integral buffers will be    131072 words long.
 Regular integral format.
 Two-electron integral symmetry is turned on.
 One-electron integrals computed using PRISM.
 NBasis=   202 RedAO= T EigKep=  4.68D-04  NBF=   202
 NBsUse=   202 1.00D-06 EigRej= -1.00D+00 NBFU=   202
 ExpMin= 1.61D-01 ExpMax= 5.48D+03 ExpMxC= 8.25D+02 IAcc=3 IRadAn=         5 AccDes= 0.00D+00
 Harris functional with IExCor=  402 and IRadAn=       5 diagonalized for initial guess.
 HarFok:  IExCor=  402 AccDes= 0.00D+00 IRadAn=         5 IDoV= 1 UseB2=F ITyADJ=14
 ICtDFT=  3500011 ScaDFX=  1.000000  1.000000  1.000000  1.000000
 FoFCou: FMM=F IPFlag=           0 FMFlag=      100000 FMFlg1=           0
         NFxFlg=           0 DoJE=T BraDBF=F KetDBF=T FulRan=T
         wScrn=  0.000000 ICntrl=       500 IOpCl=  0 I1Cent=   200000004 NGrid=           0
         NMat0=    1 NMatS0=      1 NMatT0=    0 NMatD0=    1 NMtDS0=    0 NMtDT0=    0
 Petite list used in FoFCou.
 Requested convergence on RMS density matrix=1.00D-08 within 128 cycles.
 Requested convergence on MAX density matrix=1.00D-06.
 Requested convergence on             energy=1.00D-06.
 No special actions if energy rises.
 Integral accuracy reduced to 1.0D-05 until final iterations.
 Initial convergence to 1.0D-05 achieved.  Increase integral accuracy.
 SCF Done:  E(RB3LYP) =  -554.786224862     A.U. after   14 cycles
            NFock= 14  Conv=0.46D-08     -V/T= 2.0094
 DoSCS=F DFT=T ScalE2(SS,OS)=  1.000000  1.000000
 ExpMin= 1.61D-01 ExpMax= 5.48D+03 ExpMxC= 8.25D+02 IAcc=3 IRadAn=         5 AccDes= 0.00D+00
 HarFok:  IExCor=  205 AccDes= 0.00D+00 IRadAn=         5 IDoV=-2 UseB2=F ITyADJ=14
 ICtDFT= 12500011 ScaDFX=  1.000000  1.000000  1.000000  1.000000
 Range of M.O.s used for correlation:    13   202
 NBasis=   202 NAE=    44 NBE=    44 NFC=    12 NFV=     0
 NROrb=    190 NOA=    32 NOB=    32 NVA=   158 NVB=   158
 Keep R1, R2, and R3 ints in memory in canonical form, NReq=656629584.
 Orbital symmetries:
       Occupied  (A) (A) (A) (A) (A) (A) (A) (A) (A) (A) (A) (A)
                 (A) (A) (A) (A) (A) (A) (A) (A) (A) (A) (A) (A)
                 (A) (A) (A) (A) (A) (A) (A) (A) (A) (A) (A) (A)
                 (A) (A) (A) (A) (A) (A) (A) (A)
       Virtual   (A) (A) (A) (A) (A) (A) (A) (A) (A) (A) (A) (A)
                 (A) (A) (A) (A) (A) (A) (A) (A) (A) (A) (A) (A)
                 (A) (A) (A) (A) (A) (A) (A) (A) (A) (A) (A) (A)
                 (A) (A) (A) (A) (A) (A) (A) (A) (A) (A) (A) (A)
                 (A) (A) (A) (A) (A) (A) (A) (A) (A) (A) (A) (A)
                 (A) (A) (A) (A) (A) (A) (A) (A) (A) (A) (A) (A)
                 (A) (A) (A) (A) (A) (A) (A) (A) (A) (A) (A) (A)
                 (A) (A) (A) (A) (A) (A) (A) (A) (A) (A) (A) (A)
                 (A) (A) (A) (A) (A) (A) (A) (A) (A) (A) (A) (A)
                 (A) (A) (A) (A) (A) (A) (A) (A) (A) (A) (A) (A)
                 (A) (A) (A) (A) (A) (A) (A) (A) (A) (A) (A) (A)
                 (A) (A) (A) (A) (A) (A) (A) (A) (A) (A) (A) (A)
                 (A) (A) (A) (A) (A) (A) (A) (A) (A) (A) (A) (A)
                 (A) (A)
    12 initial guesses have been made.
 Convergence on wavefunction:    0.001000000000000
 Iteration     1 Dimension    12 NMult     0 NNew     12
 CISAX will form    12 AO SS matrices at one time.
 New state      1 was old state      7
 New state      2 was old state      3
 New state      3 was old state      1
 Iteration     2 Dimension    18 NMult    12 NNew      6
 Iteration     3 Dimension    24 NMult    18 NNew      6
 Iteration     4 Dimension    30 NMult    24 NNew      6
 Iteration     5 Dimension    36 NMult    30 NNew      6
 Iteration     6 Dimension    40 NMult    36 NNew      4
 ***********************************************************************
 Excited states from <AA,BB:AA,BB> singles matrix:
 ***********************************************************************
 
 Ground to excited state transition densities written to RWF  633
 Ground to excited state transition electric dipole moments (Au):
       state          X           Y           Z        Dip. S.      Osc.
         1         0.0033     -0.0808     -0.0195      0.0069      0.0009
         2        -0.1144     -0.0036      0.0710      0.0181      0.0025
         3         0.2573      0.0246      0.0172      0.0671      0.0095
 Ground to excited state transition velocity dipole moments (Au):
       state          X           Y           Z        Dip. S.      Osc.
         1        -0.0007      0.0165      0.0060      0.0003      0.0010
         2         0.0151      0.0008     -0.0162      0.0005      0.0016
         3        -0.0524     -0.0079     -0.0084      0.0029      0.0090
 Ground to excited state transition magnetic dipole moments (Au):
       state          X           Y           Z
         1         0.0675     -0.0519      0.2075
         2         0.2739      0.2041     -0.0451
         3        -0.0021     -0.0841     -0.2062
 Ground to excited state transition velocity quadrupole moments (Au):
       state          XX          YY          ZZ          XY          XZ          YZ
         1        -0.0038      0.0088     -0.0149      0.0711      0.0357      0.0090
         2        -0.1958      0.0048      0.0790     -0.0658      0.0701      0.0945
         3        -0.3005      0.0196      0.0423     -0.0711     -0.0055     -0.0364
 <0|del|b> * <b|rxdel|0> + <0|del|b> * <b|delr+rdel|0>
 Rotatory Strengths (R) in cgs (10**-40 erg-esu-cm/Gauss)
       state          XX          YY          ZZ    R(velocity)    E-M Angle
         1         0.3979      1.3576     -0.5521      0.4011       85.09
         2         3.3092      9.0834      5.0797      5.8241       48.87
         3         4.8948      5.2398     -1.8176      2.7723       77.92
 1/2[<0|r|b>*<b|rxdel|0> + (<0|rxdel|b>*<b|r|0>)*]
 Rotatory Strengths (R) in cgs (10**-40 erg-esu-cm/Gauss)
       state          XX          YY          ZZ     R(length)
         1        -0.1584     -2.9647      2.8654     -0.0859
         2        22.1691      0.5141      2.2625      8.3152
         3         0.3820      1.4636      2.5004      1.4487
  1/2[<0|del|b>*<b|r|0> + (<0|r|b>*<b|del|0>)*] (Au)
       state          X           Y           Z        Dip. S.   Osc.(frdel)
         1        -0.0000     -0.0013     -0.0001      0.0015      0.0010
         2        -0.0017     -0.0000     -0.0012      0.0029      0.0019
         3        -0.0135     -0.0002     -0.0001      0.0138      0.0092

 Excitation energies and oscillator strengths:
 
 Excited State   1:      Singlet-A      5.4086 eV  229.23 nm  f=0.0009  <S**2>=0.000
      42 -> 45         0.23968
      42 -> 46         0.35255
      43 -> 45         0.31046
      44 -> 45        -0.31617
      44 -> 46         0.34210
 This state for optimization and/or second-order correction.
 Total Energy, E(TD-HF/TD-DFT) =  -554.587461963    
 Copying the excited state density for this state as the 1-particle RhoCI density.
 
 Excited State   2:      Singlet-A      5.5303 eV  224.19 nm  f=0.0025  <S**2>=0.000
      41 -> 47         0.27762
      42 -> 47        -0.13461
      43 -> 47         0.42738
      44 -> 47         0.45949
 
 Excited State   3:      Singlet-A      5.7809 eV  214.47 nm  f=0.0095  <S**2>=0.000
      43 -> 45         0.38122
      44 -> 45         0.51333
      44 -> 46         0.26539
 SavETr:  write IOETrn=   770 NScale= 10 NData=  16 NLR=1 NState=    3 LETran=      64.

 **********************************************************************

            Population analysis using the SCF Density.

 **********************************************************************

 Orbital symmetries:
       Occupied  (A) (A) (A) (A) (A) (A) (A) (A) (A) (A) (A) (A)
                 (A) (A) (A) (A) (A) (A) (A) (A) (A) (A) (A) (A)
                 (A) (A) (A) (A) (A) (A) (A) (A) (A) (A) (A) (A)
                 (A) (A) (A) (A) (A) (A) (A) (A)
       Virtual   (A) (A) (A) (A) (A) (A) (A) (A) (A) (A) (A) (A)
                 (A) (A) (A) (A) (A) (A) (A) (A) (A) (A) (A) (A)
                 (A) (A) (A) (A) (A) (A) (A) (A) (A) (A) (A) (A)
                 (A) (A) (A) (A) (A) (A) (A) (A) (A) (A) (A) (A)
                 (A) (A) (A) (A) (A) (A) (A) (A) (A) (A) (A) (A)
                 (A) (A) (A) (A) (A) (A) (A) (A) (A) (A) (A) (A)
                 (A) (A) (A) (A) (A) (A) (A) (A) (A) (A) (A) (A)
                 (A) (A) (A) (A) (A) (A) (A) (A) (A) (A) (A) (A)
                 (A) (A) (A) (A) (A) (A) (A) (A) (A) (A) (A) (A)
                 (A) (A) (A) (A) (A) (A) (A) (A) (A) (A) (A) (A)
                 (A) (A) (A) (A) (A) (A) (A) (A) (A) (A) (A) (A)
                 (A) (A) (A) (A) (A) (A) (A) (A) (A) (A) (A) (A)
                 (A) (A) (A) (A) (A) (A) (A) (A) (A) (A) (A) (A)
                 (A) (A)
 The electronic state is 1-A.
 Alpha  occ. eigenvalues --  -19.20263 -19.14473 -14.31909 -10.32363 -10.23475
 Alpha  occ. eigenvalues --  -10.19627 -10.19001 -10.18987 -10.18873 -10.18800
 Alpha  occ. eigenvalues --  -10.18726 -10.18654  -1.11048  -1.01982  -0.89629
 Alpha  occ. eigenvalues --   -0.85196  -0.77636  -0.74234  -0.72734  -0.67014
 Alpha  occ. eigenvalues --   -0.60367  -0.59909  -0.56846  -0.51561  -0.50350
 Alpha  occ. eigenvalues --   -0.49421  -0.48753  -0.46176  -0.45195  -0.44327
 Alpha  occ. eigenvalues --   -0.42414  -0.41726  -0.41090  -0.39123  -0.38339
 Alpha  occ. eigenvalues --   -0.36884  -0.35178  -0.33713  -0.33532  -0.32383
 Alpha  occ. eigenvalues --   -0.28168  -0.24973  -0.24662  -0.23879
 Alpha virt. eigenvalues --   -0.00221  -0.00081   0.00402   0.06786   0.09392
 Alpha virt. eigenvalues --    0.11006   0.12610   0.13579   0.14622   0.16032
 Alpha virt. eigenvalues --    0.16474   0.16709   0.18125   0.19144   0.19837
 Alpha virt. eigenvalues --    0.22320   0.22903   0.25680   0.25927   0.30691
 Alpha virt. eigenvalues --    0.31701   0.32826   0.33515   0.35198   0.38607
 Alpha virt. eigenvalues --    0.46307   0.52481   0.52895   0.54160   0.55162
 Alpha virt. eigenvalues --    0.55347   0.56005   0.57396   0.59300   0.59793
 Alpha virt. eigenvalues --    0.60086   0.60680   0.61226   0.61601   0.62413
 Alpha virt. eigenvalues --    0.65489   0.66108   0.66300   0.68410   0.70795
 Alpha virt. eigenvalues --    0.72022   0.73141   0.75135   0.77357   0.80657
 Alpha virt. eigenvalues --    0.82232   0.82721   0.83957   0.84196   0.84834
 Alpha virt. eigenvalues --    0.85365   0.87154   0.88943   0.90482   0.91392
 Alpha virt. eigenvalues --    0.92469   0.94166   0.94474   0.95774   0.97455
 Alpha virt. eigenvalues --    0.98214   1.00245   1.01552   1.03340   1.07364
 Alpha virt. eigenvalues --    1.10343   1.11410   1.12711   1.13293   1.16950
 Alpha virt. eigenvalues --    1.18410   1.21975   1.24197   1.27959   1.30779
 Alpha virt. eigenvalues --    1.38640   1.39423   1.42584   1.43892   1.46274
 Alpha virt. eigenvalues --    1.48658   1.49424   1.51341   1.51599   1.56520
 Alpha virt. eigenvalues --    1.57777   1.59677   1.66959   1.68512   1.74973
 Alpha virt. eigenvalues --    1.75899   1.78155   1.79313   1.80595   1.81862
 Alpha virt. eigenvalues --    1.83461   1.86017   1.89237   1.91539   1.92564
 Alpha virt. eigenvalues --    1.94633   1.95890   1.97746   1.99055   2.00359
 Alpha virt. eigenvalues --    2.04394   2.05738   2.07917   2.13150   2.14129
 Alpha virt. eigenvalues --    2.15166   2.16322   2.21350   2.21880   2.26842
 Alpha virt. eigenvalues --    2.30547   2.32127   2.34138   2.36292   2.38964
 Alpha virt. eigenvalues --    2.40135   2.42900   2.52056   2.54716   2.58069
 Alpha virt. eigenvalues --    2.58441   2.62281   2.63981   2.65435   2.67717
 Alpha virt. eigenvalues --    2.72798   2.74418   2.75362   2.76711   2.78972
 Alpha virt. eigenvalues --    2.85523   2.92968   2.98781   3.05078   3.11464
 Alpha virt. eigenvalues --    3.40882   3.79557   3.84076   4.09103   4.11873
 Alpha virt. eigenvalues --    4.13173   4.14260   4.24396   4.33734   4.39947
 Alpha virt. eigenvalues --    4.42567   4.62116   4.70974
          Condensed to atoms (all electrons):
               1          2          3          4          5          6
     1  C    5.125183   0.350390   0.279250  -0.027971  -0.027015   0.297188
     2  H    0.350390   0.634601  -0.044359  -0.005787  -0.002105  -0.036030
     3  N    0.279250  -0.044359   7.003273   0.290243   0.300146  -0.034322
     4  H   -0.027971  -0.005787   0.290243   0.444243  -0.026256   0.004991
     5  H   -0.027015  -0.002105   0.300146  -0.026256   0.429755  -0.011954
     6  C    0.297188  -0.036030  -0.034322   0.004991  -0.011954   4.360312
     7  O   -0.080137   0.000966   0.001317  -0.000089   0.000130   0.570552
     8  O   -0.092988  -0.000373  -0.002541   0.000071   0.012983   0.280928
     9  H    0.010934  -0.000532  -0.000275   0.000034  -0.000375  -0.007124
    10  C    0.338540  -0.054931  -0.062370  -0.004749   0.006188  -0.030465
    11  H   -0.031426   0.000994   0.004568  -0.000136  -0.000214  -0.004357
    12  H   -0.036941   0.006598   0.001764  -0.000225  -0.000037  -0.005772
    13  C   -0.033300  -0.002637  -0.007803   0.007304   0.000129   0.004532
    14  C   -0.002795   0.002774   0.000000   0.000015  -0.000012  -0.000014
    15  C   -0.005641   0.000988  -0.002438   0.009319  -0.000015  -0.000037
    16  C   -0.000120  -0.000135   0.000016  -0.000041  -0.000001   0.000002
    17  H    0.000308   0.000526   0.000011  -0.000009  -0.000000  -0.000043
    18  C    0.000006  -0.000010  -0.000071   0.000180  -0.000001   0.000002
    19  H   -0.000462   0.000279   0.005714  -0.001668  -0.000012  -0.000099
    20  C    0.000022  -0.000002   0.000005  -0.000064   0.000000  -0.000000
    21  H   -0.000000   0.000001   0.000000   0.000000   0.000000  -0.000000
    22  H   -0.000002  -0.000000  -0.000003   0.000006   0.000000  -0.000000
    23  H    0.000000  -0.000000   0.000000  -0.000000  -0.000000   0.000000
               7          8          9         10         11         12
     1  C   -0.080137  -0.092988   0.010934   0.338540  -0.031426  -0.036941
     2  H    0.000966  -0.000373  -0.000532  -0.054931   0.000994   0.006598
     3  N    0.001317  -0.002541  -0.000275  -0.062370   0.004568   0.001764
     4  H   -0.000089   0.000071   0.000034  -0.004749  -0.000136  -0.000225
     5  H    0.000130   0.012983  -0.000375   0.006188  -0.000214  -0.000037
     6  C    0.570552   0.280928  -0.007124  -0.030465  -0.004357  -0.005772
     7  O    8.029731  -0.084112   0.011648   0.001961   0.008397   0.002113
     8  O   -0.084112   8.247804   0.216800   0.002588   0.000161   0.000002
     9  H    0.011648   0.216800   0.357211  -0.000250  -0.000021  -0.000018
    10  C    0.001961   0.002588  -0.000250   5.209414   0.350283   0.356275
    11  H    0.008397   0.000161  -0.000021   0.350283   0.563106  -0.027556
    12  H    0.002113   0.000002  -0.000018   0.356275  -0.027556   0.564585
    13  C    0.000739  -0.000017   0.000001   0.335262  -0.033139  -0.029309
    14  C   -0.000011  -0.000000   0.000000  -0.050024  -0.005644   0.003234
    15  C   -0.000002  -0.000001   0.000000  -0.058261   0.004595  -0.004793
    16  C   -0.000000  -0.000000   0.000000   0.006798   0.000218  -0.000219
    17  H   -0.000002   0.000000  -0.000000  -0.009726   0.006101   0.000084
    18  C   -0.000000  -0.000000   0.000000   0.006121  -0.000157   0.000118
    19  H    0.000001   0.000000  -0.000000  -0.008064   0.000070   0.004887
    20  C    0.000000   0.000000  -0.000000   0.000370   0.000004   0.000021
    21  H   -0.000000   0.000000  -0.000000  -0.000177  -0.000009   0.000003
    22  H   -0.000000   0.000000  -0.000000  -0.000171   0.000003  -0.000005
    23  H    0.000000  -0.000000  -0.000000   0.000006  -0.000000  -0.000000
              13         14         15         16         17         18
     1  C   -0.033300  -0.002795  -0.005641  -0.000120   0.000308   0.000006
     2  H   -0.002637   0.002774   0.000988  -0.000135   0.000526  -0.000010
     3  N   -0.007803   0.000000  -0.002438   0.000016   0.000011  -0.000071
     4  H    0.007304   0.000015   0.009319  -0.000041  -0.000009   0.000180
     5  H    0.000129  -0.000012  -0.000015  -0.000001  -0.000000  -0.000001
     6  C    0.004532  -0.000014  -0.000037   0.000002  -0.000043   0.000002
     7  O    0.000739  -0.000011  -0.000002  -0.000000  -0.000002  -0.000000
     8  O   -0.000017  -0.000000  -0.000001  -0.000000   0.000000  -0.000000
     9  H    0.000001   0.000000   0.000000   0.000000  -0.000000   0.000000
    10  C    0.335262  -0.050024  -0.058261   0.006798  -0.009726   0.006121
    11  H   -0.033139  -0.005644   0.004595   0.000218   0.006101  -0.000157
    12  H   -0.029309   0.003234  -0.004793  -0.000219   0.000084   0.000118
    13  C    4.681571   0.550997   0.535985  -0.019851  -0.044754  -0.022840
    14  C    0.550997   4.965832  -0.043352   0.519707   0.353959  -0.046158
    15  C    0.535985  -0.043352   4.998728  -0.047132   0.006431   0.515568
    16  C   -0.019851   0.519707  -0.047132   4.871978  -0.046242  -0.026426
    17  H   -0.044754   0.353959   0.006431  -0.046242   0.608252   0.000333
    18  C   -0.022840  -0.046158   0.515568  -0.026426   0.000333   4.879031
    19  H   -0.044485   0.005875   0.353885   0.000343  -0.000174  -0.043509
    20  C   -0.034054  -0.035725  -0.035329   0.550403   0.004849   0.549449
    21  H    0.003801  -0.039469   0.000781   0.356486  -0.005674   0.004626
    22  H    0.003670   0.000830  -0.039542   0.004604   0.000017   0.356690
    23  H    0.000636   0.004742   0.004702  -0.043129  -0.000180  -0.043386
              19         20         21         22         23
     1  C   -0.000462   0.000022  -0.000000  -0.000002   0.000000
     2  H    0.000279  -0.000002   0.000001  -0.000000  -0.000000
     3  N    0.005714   0.000005   0.000000  -0.000003   0.000000
     4  H   -0.001668  -0.000064   0.000000   0.000006  -0.000000
     5  H   -0.000012   0.000000   0.000000   0.000000  -0.000000
     6  C   -0.000099  -0.000000  -0.000000  -0.000000   0.000000
     7  O    0.000001   0.000000  -0.000000  -0.000000   0.000000
     8  O    0.000000   0.000000   0.000000   0.000000  -0.000000
     9  H   -0.000000  -0.000000  -0.000000  -0.000000  -0.000000
    10  C   -0.008064   0.000370  -0.000177  -0.000171   0.000006
    11  H    0.000070   0.000004  -0.000009   0.000003  -0.000000
    12  H    0.004887   0.000021   0.000003  -0.000005  -0.000000
    13  C   -0.044485  -0.034054   0.003801   0.003670   0.000636
    14  C    0.005875  -0.035725  -0.039469   0.000830   0.004742
    15  C    0.353885  -0.035329   0.000781  -0.039542   0.004702
    16  C    0.000343   0.550403   0.356486   0.004604  -0.043129
    17  H   -0.000174   0.004849  -0.005674   0.000017  -0.000180
    18  C   -0.043509   0.549449   0.004626   0.356690  -0.043386
    19  H    0.581716   0.004591   0.000017  -0.005364  -0.000168
    20  C    0.004591   4.853038  -0.043365  -0.043085   0.359226
    21  H    0.000017  -0.043365   0.598898  -0.000189  -0.005577
    22  H   -0.005364  -0.043085  -0.000189   0.597656  -0.005574
    23  H   -0.000168   0.359226  -0.005577  -0.005574   0.599547
 Mulliken charges:
               1
     1  C   -0.063021
     2  H    0.148784
     3  N   -0.732127
     4  H    0.310588
     5  H    0.318666
     6  C    0.611713
     7  O   -0.463202
     8  O   -0.581306
     9  H    0.411965
    10  C   -0.334619
    11  H    0.164159
    12  H    0.165193
    13  C    0.147565
    14  C   -0.184760
    15  C   -0.194438
    16  C   -0.127258
    17  H    0.125932
    18  C   -0.129568
    19  H    0.146625
    20  C   -0.130354
    21  H    0.129848
    22  H    0.130459
    23  H    0.129156
 Sum of Mulliken charges =  -0.00000
 Mulliken charges with hydrogens summed into heavy atoms:
               1
     1  C    0.085762
     3  N   -0.102873
     6  C    0.611713
     7  O   -0.463202
     8  O   -0.169340
    10  C   -0.005266
    13  C    0.147565
    14  C   -0.058828
    15  C   -0.047814
    16  C    0.002590
    18  C    0.000891
    20  C   -0.001197
 Electronic spatial extent (au):  <R**2>=           2658.0728
 Charge=             -0.0000 electrons
 Dipole moment (field-independent basis, Debye):
    X=              0.2159    Y=              0.8464    Z=             -2.0508  Tot=              2.2290
 Quadrupole moment (field-independent basis, Debye-Ang):
   XX=            -60.6073   YY=            -69.8059   ZZ=            -71.3228
   XY=             -2.1850   XZ=              3.0994   YZ=              1.8673
 Traceless Quadrupole moment (field-independent basis, Debye-Ang):
   XX=              6.6380   YY=             -2.5605   ZZ=             -4.0775
   XY=             -2.1850   XZ=              3.0994   YZ=              1.8673
 Octapole moment (field-independent basis, Debye-Ang**2):
  XXX=            -66.9129  YYY=              4.0097  ZZZ=             -1.0253  XYY=              5.2912
  XXY=             16.0578  XXZ=            -21.3253  XZZ=            -12.7922  YZZ=              2.9160
  YYZ=             -9.3334  XYZ=              1.9702
 Hexadecapole moment (field-independent basis, Debye-Ang**3):
 XXXX=          -2244.7675 YYYY=           -458.7970 ZZZZ=           -204.8219 XXXY=            -27.6466
 XXXZ=             17.6586 YYYX=             -5.8075 YYYZ=             -6.7049 ZZZX=              3.4060
 ZZZY=             -5.5068 XXYY=           -549.5934 XXZZ=           -515.6687 YYZZ=           -108.6569
 XXYZ=             37.3606 YYXZ=             15.1712 ZZXY=             -5.1280
 N-N= 6.654059919075D+02 E-N=-2.622745306154D+03  KE= 5.496243450554D+02
 Unable to Open any file for archive entry.
 1\1\GINC-CCC179\SP\RB3LYP TD-FC\6-31G(d)\C9H11N1O2\ROOT\21-Feb-2025\0\
 \# td=(nstat=3) b3lyp/6-31g(d)\\phe | No.18\\0,1\C,0,-1.389175,-0.1244
 39,0.327052\H,0,-1.19448,0.29747,1.333763\N,0,-1.270811,-1.585043,0.28
 61\H,0,-0.35815,-1.848937,0.652262\H,0,-1.970133,-2.000543,0.897544\C,
 0,-2.824115,0.284173,0.005543\O,0,-3.162258,1.215724,-0.688352\O,0,-3.
 723331,-0.50485,0.648538\H,0,-4.604905,-0.166552,0.402457\C,0,-0.41489
 9,0.545973,-0.662711\H,0,-0.626697,1.618857,-0.671449\H,0,-0.646253,0.
 163706,-1.663162\C,0,1.042858,0.301947,-0.331837\C,0,1.797482,1.279659
 ,0.33137\C,0,1.681536,-0.893205,-0.699309\C,0,3.1415,1.065158,0.640432
 \H,0,1.32569,2.220811,0.606033\C,0,3.025252,-1.111851,-0.39092\H,0,1.1
 1918,-1.650299,-1.240118\C,0,3.759661,-0.13403,0.282557\H,0,3.707236,1
 .838345,1.15399\H,0,3.500958,-2.043537,-0.68654\H,0,4.807339,-0.301317
 ,0.517976\\Version=ES64L-G16RevC.02\State=1-A\HF=-554.7862249\RMSD=4.5
 60e-09\PG=C01 [X(C9H11N1O2)]\\@
 The archive entry for this job was punched.


                                                                                    A
                                                                                  AA
                                                                                 AAA
                                                                                AAAA
                                                                               AAAAA
                                                                              AAAAAA   KKKKKKKK
                                                                             AAAAAAA   KKKKKKKK
                                                                            AAAAAAAA   KKKKKKKK
                                       ZZZZZZZZZZZZZZZZZZZZ                AAAA  AAA   KKKKKKKK
                                       ZZZZZZZZZZZZZZZZZZZ                AAAA   AAA   KKKKKKKK          K
                                       ZZZZZZZZZZZZZZZZZZ                AAAA    AAA   KKKKKKKK         KKK
                                       ZZZZZZZZZZZZZZZZZ                AAAA     AAA   KKKKKKKK        KKKKK
                                       ZZZZZZZZZZZZZZZZ                AAAA      AAA   KKKKKKKK       KKKKKKK
                                                ZZZZZZ                AAAA       AAA   KKKKKKKK      KKKKKKK
                                               ZZZZZZ                AAAA        AAA   KKKKKKKK     KKKKKKK
                                              ZZZZZZ                AAAA         AAA   KKKKKKKK    KKKKKKK
                                             ZZZZZZ                AAAA          AAA   KKKKKKKK   KKKKKKK
                                            ZZZZZZ                AAAAAAAAAAAAAAAAAA   KKKKKKKK  KKKKKKK
                                           ZZZZZZ                AAAAAAAAAAAAAAAAAAA   KKKKKKKK KKKKKKK
                                          ZZZZZZ                AAAAAAAAAAAAAAAAAAAA   KKKKKKKKKKKKKKK
                                         ZZZZZZ                AAAAAAAAAAAAAAAAAAAAA   KKKKKKKKKKKKKK
                                        ZZZZZZ                AAAAAA        AAAAAAAA   KKKKKKKKKKKKK
                                       ZZZZZZ                AAAAAA         AAAAAAAA   KKKKKKKKKKKK
                                      ZZZZZZ                AAAAAA          AAAAAAAA   KKKKKKKKKKK
                                     ZZZZZZ                AAAAAA           AAAAAAAA   KKKKKKKKKKKK
                                    ZZZZZZ                AAAAAA            AAAAAAAA   KKKKKKKKKKKKK
                                   ZZZZZZ                AAAAAA             AAAAAAAA   KKKKKKKKKKKKKK
                                  ZZZZZZ                AAAAAA              AAAAAAAA   KKKKKKKKKKKKKKK
                                 ZZZZZZ                AAAAAA               AAAAAAAA   KKKKK KKKKKKKKKK
                                ZZZZZZ                AAAAAA                AAAAAAAA   KKKKK  KKKKKKKKKK
                               ZZZZZZ                AAAAAA                            KKKKK   KKKKKKKKKK
                              ZZZZZZ                AAAAAA                             KKKKK    KKKKKKKKKK
                             ZZZZZZ                                                    KKKKK     KKKKKKKKKK
                            ZZZZZZ                                                     KKKKK      KKKKKKKKKK
                           ZZZZZZ                                                      KKKKK       KKKKKKKKKK
                          ZZZZZZ                                                       KKKKK        KKKKKKKKKK
                         ZZZZZZZZZZZZZZZZZZZZZZZZZZZZZZZZZZZZZZZZ                      KKKKK         KKKKKKKKKK
                        ZZZZZZZZZZZZZZZZZZZZZZZZZZZZZZZZZZZZZZZZZ                      KKKKK          KKKKKKKKKK
                       ZZZZZZZZZZZZZZZZZZZZZZZZZZZZZZZZZZZZZZZZZZ                      KKKKK           KKKKKKKKKK
                       ZZZZZZZZZZZZZZZZZZZZZZZZZZZZZZZZZZZZZZZZZZ                      KKKKK            KKKKKKKKKK
                       ZZZZZZZZZZZZZZZZZZZZZZZZZZZZZZZZZZZZZZZZZZ                      KKKKK             KKKKKKKKKK
                       ZZZZZZZZZZZZZZZZZZZZZZZZZZZZZZZZZZZZZZZZZZ                      KKKKK              KKKKKKKKKK
                       ZZZZZZZZZZZZZZZZZZZZZZZZZZZZZZZZZZZZZZZZZZ                      KKKKK               KKKKKKKKKK
                       ZZZZZZZZZZZZZZZZZZZZZZZZZZZZZZZZZZZZZZZZZZ                      KKKKK                KKKKKKKKKK
                       ZZZZZZZZZZZZZZZZZZZZZZZZZZZZZZZZZZZZZZZZZZ                      KKKKK
                                                                                       KKKKK
                                                                                          (J.P.)
 Job cpu time:       0 days  0 hours 14 minutes 39.3 seconds.
 Elapsed time:       0 days  0 hours  1 minutes 56.6 seconds.
 File lengths (MBytes):  RWF=    272 Int=      0 D2E=      0 Chk=      8 Scr=      1
 Normal termination of Gaussian 16 at Fri Feb 21 15:16:19 2025.
