 Entering Gaussian System, Link 0=/apl/gaussian/16c02/g16/._.g16
 Initial command:
 /apl/gaussian/16c02/g16/l1.exe "/lwork/users/ux8/8287068.ccpbs1/gaussian/Gau-945293.inp" -scrdir="/lwork/users/ux8/8287068.ccpbs1/gaussian/"
 Default CPUs for threads: 0,1,2,3,4,5,6,7
 Default is to use a total of   8 processors:
                                8 via shared-memory
                                1 via Linda
 Entering Link 1 = /apl/gaussian/16c02/g16/l1.exe PID=    945309.
  
 Copyright (c) 1988-2021, Gaussian, Inc.  All Rights Reserved.
  
 This is part of the Gaussian(R) 16 program.  It is based on
 the Gaussian(R) 09 system (copyright 2009, Gaussian, Inc.),
 the Gaussian(R) 03 system (copyright 2003, Gaussian, Inc.),
 the Gaussian(R) 98 system (copyright 1998, Gaussian, Inc.),
 the Gaussian(R) 94 system (copyright 1995, Gaussian, Inc.),
 the Gaussian 92(TM) system (copyright 1992, Gaussian, Inc.),
 the Gaussian 90(TM) system (copyright 1990, Gaussian, Inc.),
 the Gaussian 88(TM) system (copyright 1988, Gaussian, Inc.),
 the Gaussian 86(TM) system (copyright 1986, Carnegie Mellon
 University), and the Gaussian 82(TM) system (copyright 1983,
 Carnegie Mellon University). Gaussian is a federally registered
 trademark of Gaussian, Inc.
  
 This software contains proprietary and confidential information,
 including trade secrets, belonging to Gaussian, Inc.
  
 This software is provided under written license and may be
 used, copied, transmitted, or stored only in accord with that
 written license.
  
 The following legend is applicable only to US Government
 contracts under FAR:
  
                    RESTRICTED RIGHTS LEGEND
  
 Use, reproduction and disclosure by the US Government is
 subject to restrictions as set forth in subparagraphs (a)
 and (c) of the Commercial Computer Software - Restricted
 Rights clause in FAR 52.227-19.
  
 Gaussian, Inc.
 340 Quinnipiac St., Bldg. 40, Wallingford CT 06492
  
  
 ---------------------------------------------------------------
 Warning -- This program may not be used in any manner that
 competes with the business of Gaussian, Inc. or will provide
 assistance to any competitor of Gaussian, Inc.  The licensee
 of this program is prohibited from giving any competitor of
 Gaussian, Inc. access to this program.  By using this program,
 the user acknowledges that Gaussian, Inc. is engaged in the
 business of creating and licensing software in the field of
 computational chemistry and represents and warrants to the
 licensee that it is not a competitor of Gaussian, Inc. and that
 it will not use this program in any manner prohibited above.
 ---------------------------------------------------------------
  

 Cite this work as:
 Gaussian 16, Revision C.02,
 M. J. Frisch, G. W. Trucks, H. B. Schlegel, G. E. Scuseria, 
 M. A. Robb, J. R. Cheeseman, G. Scalmani, V. Barone, 
 G. A. Petersson, H. Nakatsuji, X. Li, M. Caricato, A. V. Marenich, 
 J. Bloino, B. G. Janesko, R. Gomperts, B. Mennucci, H. P. Hratchian, 
 J. V. Ortiz, A. F. Izmaylov, J. L. Sonnenberg, D. Williams-Young, 
 F. Ding, F. Lipparini, F. Egidi, J. Goings, B. Peng, A. Petrone, 
 T. Henderson, D. Ranasinghe, V. G. Zakrzewski, J. Gao, N. Rega, 
 G. Zheng, W. Liang, M. Hada, M. Ehara, K. Toyota, R. Fukuda, 
 J. Hasegawa, M. Ishida, T. Nakajima, Y. Honda, O. Kitao, H. Nakai, 
 T. Vreven, K. Throssell, J. A. Montgomery, Jr., J. E. Peralta, 
 F. Ogliaro, M. J. Bearpark, J. J. Heyd, E. N. Brothers, K. N. Kudin, 
 V. N. Staroverov, T. A. Keith, R. Kobayashi, J. Normand, 
 K. Raghavachari, A. P. Rendell, J. C. Burant, S. S. Iyengar, 
 J. Tomasi, M. Cossi, J. M. Millam, M. Klene, C. Adamo, R. Cammi, 
 J. W. Ochterski, R. L. Martin, K. Morokuma, O. Farkas, 
 J. B. Foresman, and D. J. Fox, Gaussian, Inc., Wallingford CT, 2019.
 
 ******************************************
 Gaussian 16:  ES64L-G16RevC.02  7-Dec-2021
                21-Feb-2025 
 ******************************************
 %chk=phe.009.tddft.chk
 %mem=9600MB
 SetSPE:  set environment variable "OMP_PROC_BIND" = "true"
 SetSPE:  set environment variable "OMP_PLACES" = "{0},{1},{2},{3},{4},{5},{6},{7}"
 -----------------------------
 # td=(nstat=3) b3lyp/6-31g(d)
 -----------------------------
 1/38=1,172=1/1;
 2/12=2,17=6,18=5,40=1/2;
 3/5=1,6=6,7=1,11=9,25=1,30=1,74=-5/1,2,3,8;
 4//1;
 5/5=2,38=5/2;
 8/6=1,10=2,108=3/1;
 9/41=3,42=1,70=2/14;
 6/7=2,8=2,9=2,10=2/1;
 99/5=1,9=1/99;
 ----------
 phe | No.9
 ----------
 Symbolic Z-matrix:
 Charge =  0 Multiplicity = 1
 C                    -1.43449  -0.32991   0.04937 
 H                    -1.24326  -0.87136   0.99734 
 N                    -1.44553  -1.19919  -1.13292 
 H                    -0.51765  -1.59432  -1.26982 
 H                    -2.0921   -1.9721   -0.99381 
 C                    -2.82556   0.27353   0.22835 
 O                    -3.08235   1.43064   0.4709 
 O                    -3.78739  -0.67886   0.1291 
 H                    -4.6383   -0.21938   0.25882 
 C                    -0.38877   0.77701  -0.10183 
 H                    -0.58232   1.53094   0.67041 
 H                    -0.56665   1.27596  -1.06201 
 C                     1.06618   0.34028  -0.01869 
 C                     2.06174   1.26944  -0.3611 
 C                     1.47674  -0.92213   0.42933 
 C                     3.41418   0.94998  -0.26678 
 H                     1.76574   2.25719  -0.70835 
 C                     2.83309  -1.24914   0.52283 
 H                     0.7407   -1.6686    0.71584 
 C                     3.80739  -0.31585   0.17572 
 H                     4.16289   1.68917  -0.53986 
 H                     3.12304  -2.23732   0.87077 
 H                     4.86152  -0.5694    0.24795 
 
                          Input orientation:                          
 ---------------------------------------------------------------------
 Center     Atomic      Atomic             Coordinates (Angstroms)
 Number     Number       Type             X           Y           Z
 ---------------------------------------------------------------------
      1          6           0       -1.434492   -0.329908    0.049371
      2          1           0       -1.243264   -0.871359    0.997344
      3          7           0       -1.445530   -1.199185   -1.132922
      4          1           0       -0.517646   -1.594318   -1.269816
      5          1           0       -2.092101   -1.972095   -0.993806
      6          6           0       -2.825560    0.273528    0.228354
      7          8           0       -3.082348    1.430638    0.470900
      8          8           0       -3.787394   -0.678859    0.129095
      9          1           0       -4.638299   -0.219384    0.258817
     10          6           0       -0.388769    0.777014   -0.101833
     11          1           0       -0.582320    1.530935    0.670414
     12          1           0       -0.566652    1.275960   -1.062010
     13          6           0        1.066184    0.340276   -0.018687
     14          6           0        2.061739    1.269439   -0.361098
     15          6           0        1.476740   -0.922128    0.429330
     16          6           0        3.414182    0.949976   -0.266781
     17          1           0        1.765744    2.257193   -0.708353
     18          6           0        2.833089   -1.249135    0.522825
     19          1           0        0.740698   -1.668596    0.715838
     20          6           0        3.807394   -0.315850    0.175718
     21          1           0        4.162892    1.689165   -0.539856
     22          1           0        3.123044   -2.237318    0.870768
     23          1           0        4.861519   -0.569398    0.247954
 ---------------------------------------------------------------------
                    Distance matrix (angstroms):
                    1          2          3          4          5
     1  C    0.000000
     2  H    1.108328   0.000000
     3  N    1.467508   2.164813   0.000000
     4  H    2.044405   2.487811   1.017762   0.000000
     5  H    2.053642   2.428337   1.017250   1.642500   0.000000
     6  C    1.526840   2.098993   2.434428   3.325632   2.659786
     7  O    2.447987   2.993086   3.488178   4.331068   3.834651
     8  O    2.379973   2.695090   2.710674   3.672366   2.409852
     9  H    3.212548   3.535075   3.618110   4.605100   3.335294
    10  C    1.530253   2.157657   2.466830   2.646509   3.354781
    11  H    2.138838   2.512916   3.383889   3.679114   4.161765
    12  H    2.137084   3.051184   2.627508   2.878208   3.589082
    13  C    2.589818   2.798916   3.149630   2.795800   4.033941
    14  C    3.866526   4.165504   4.357838   3.959811   5.306812
    15  C    2.995057   2.779144   3.325215   2.704905   3.983011
    16  C    5.024708   5.158205   5.383855   4.789445   6.275844
    17  H    4.184346   4.663836   4.736991   4.512566   5.731608
    18  C    4.391057   4.121230   4.588090   3.815775   5.203877
    19  H    2.639643   2.156603   2.901354   2.351971   3.322611
    20  C    5.243427   5.147116   5.485073   4.736034   6.238187
    21  H    5.979511   6.176228   6.336299   5.763813   7.261944
    22  H    5.008397   4.576736   5.095524   4.272022   5.544792
    23  H    6.303693   6.158014   6.487089   5.682385   7.201552
                    6          7          8          9         10
     6  C    0.000000
     7  O    1.209823   0.000000
     8  O    1.357210   2.250311   0.000000
     9  H    1.878806   2.277836   0.975697   0.000000
    10  C    2.510074   2.830303   3.704530   4.379656   0.000000
    11  H    2.609332   2.509981   3.930485   4.436665   1.096460
    12  H    2.787934   2.949994   3.951358   4.534197   1.096599
    13  C    3.900148   4.317280   4.961622   5.738585   1.521362
    14  C    5.022448   5.213429   6.184538   6.891400   2.512905
    15  C    4.469874   5.130548   5.278298   6.157648   2.578632
    16  C    6.295802   6.555922   7.394087   8.153901   3.810454
    17  H    5.088459   5.057453   6.337118   6.934019   2.683416
    18  C    5.867327   6.494326   6.656653   7.546637   3.856922
    19  H    4.089949   4.927568   4.671987   5.589516   2.815189
    20  C    6.659295   7.113782   7.603601   8.446653   4.345017
    21  H    7.171655   7.319970   8.322384   9.041095   4.662778
    22  H    6.488677   7.219466   7.122712   8.042698   4.729163
    23  H    7.733181   8.194808   8.650422   9.506270   5.431455
                   11         12         13         14         15
    11  H    0.000000
    12  H    1.751157   0.000000
    13  C    2.147113   2.151785   0.000000
    14  C    2.850166   2.720250   1.404179   0.000000
    15  C    3.211755   3.351289   1.401049   2.402075   0.000000
    16  C    4.145826   4.072554   2.438520   1.392858   2.782629
    17  H    2.818129   2.554988   2.153972   1.088052   3.389090
    18  C    4.406313   4.521730   2.437502   2.778402   1.398341
    19  H    3.462577   3.679717   2.163570   3.396615   1.086765
    20  C    4.787998   4.816441   2.825337   2.418393   2.421537
    21  H    4.899676   4.776188   3.417707   2.150109   3.869572
    22  H    5.288629   5.449093   3.415523   3.865386   2.152884
    23  H    5.850235   5.881020   3.911927   3.404561   3.407938
                   16         17         18         19         20
    16  C    0.000000
    17  H    2.149686   0.000000
    18  C    2.407745   3.866440   0.000000
    19  H    3.869105   4.300100   2.142732   0.000000
    20  C    1.397403   3.401539   1.393117   3.395037   0.000000
    21  H    1.086985   2.469284   3.395773   4.956081   2.158358
    22  H    3.396708   4.953435   1.087034   2.454184   2.154871
    23  H    2.160610   4.299763   2.156878   4.290492   1.086593
                   21         22         23
    21  H    0.000000
    22  H    4.299815   0.000000
    23  H    2.491953   2.488403   0.000000
 Stoichiometry    C9H11NO2
 Framework group  C1[X(C9H11NO2)]
 Deg. of freedom    63
 Full point group                 C1      NOp   1
 Largest Abelian subgroup         C1      NOp   1
 Largest concise Abelian subgroup C1      NOp   1
                         Standard orientation:                         
 ---------------------------------------------------------------------
 Center     Atomic      Atomic             Coordinates (Angstroms)
 Number     Number       Type             X           Y           Z
 ---------------------------------------------------------------------
      1          6           0        1.434492   -0.329908   -0.049371
      2          1           0        1.243264   -0.871359   -0.997344
      3          7           0        1.445530   -1.199185    1.132922
      4          1           0        0.517646   -1.594318    1.269816
      5          1           0        2.092101   -1.972095    0.993806
      6          6           0        2.825560    0.273528   -0.228354
      7          8           0        3.082348    1.430638   -0.470900
      8          8           0        3.787394   -0.678859   -0.129095
      9          1           0        4.638299   -0.219384   -0.258817
     10          6           0        0.388769    0.777014    0.101833
     11          1           0        0.582320    1.530935   -0.670414
     12          1           0        0.566652    1.275960    1.062010
     13          6           0       -1.066184    0.340276    0.018687
     14          6           0       -2.061739    1.269439    0.361098
     15          6           0       -1.476740   -0.922128   -0.429330
     16          6           0       -3.414182    0.949976    0.266781
     17          1           0       -1.765744    2.257193    0.708353
     18          6           0       -2.833089   -1.249135   -0.522825
     19          1           0       -0.740698   -1.668596   -0.715838
     20          6           0       -3.807394   -0.315850   -0.175718
     21          1           0       -4.162892    1.689165    0.539856
     22          1           0       -3.123044   -2.237318   -0.870768
     23          1           0       -4.861519   -0.569398   -0.247954
 ---------------------------------------------------------------------
 Rotational constants (GHZ):           2.5645114           0.4373996           0.3960342
 Standard basis: 6-31G(d) (6D, 7F)
 There are   202 symmetry adapted cartesian basis functions of A   symmetry.
 There are   202 symmetry adapted basis functions of A   symmetry.
   202 basis functions,   380 primitive gaussians,   202 cartesian basis functions
    44 alpha electrons       44 beta electrons
       nuclear repulsion energy       663.7503175819 Hartrees.
 NAtoms=   23 NActive=   23 NUniq=   23 SFac= 1.00D+00 NAtFMM=   60 NAOKFM=F Big=F
 Integral buffers will be    131072 words long.
 Regular integral format.
 Two-electron integral symmetry is turned on.
 One-electron integrals computed using PRISM.
 NBasis=   202 RedAO= T EigKep=  4.58D-04  NBF=   202
 NBsUse=   202 1.00D-06 EigRej= -1.00D+00 NBFU=   202
 ExpMin= 1.61D-01 ExpMax= 5.48D+03 ExpMxC= 8.25D+02 IAcc=3 IRadAn=         5 AccDes= 0.00D+00
 Harris functional with IExCor=  402 and IRadAn=       5 diagonalized for initial guess.
 HarFok:  IExCor=  402 AccDes= 0.00D+00 IRadAn=         5 IDoV= 1 UseB2=F ITyADJ=14
 ICtDFT=  3500011 ScaDFX=  1.000000  1.000000  1.000000  1.000000
 FoFCou: FMM=F IPFlag=           0 FMFlag=      100000 FMFlg1=           0
         NFxFlg=           0 DoJE=T BraDBF=F KetDBF=T FulRan=T
         wScrn=  0.000000 ICntrl=       500 IOpCl=  0 I1Cent=   200000004 NGrid=           0
         NMat0=    1 NMatS0=      1 NMatT0=    0 NMatD0=    1 NMtDS0=    0 NMtDT0=    0
 Petite list used in FoFCou.
 Requested convergence on RMS density matrix=1.00D-08 within 128 cycles.
 Requested convergence on MAX density matrix=1.00D-06.
 Requested convergence on             energy=1.00D-06.
 No special actions if energy rises.
 Integral accuracy reduced to 1.0D-05 until final iterations.
 Initial convergence to 1.0D-05 achieved.  Increase integral accuracy.
 SCF Done:  E(RB3LYP) =  -554.782843020     A.U. after   14 cycles
            NFock= 14  Conv=0.46D-08     -V/T= 2.0094
 DoSCS=F DFT=T ScalE2(SS,OS)=  1.000000  1.000000
 ExpMin= 1.61D-01 ExpMax= 5.48D+03 ExpMxC= 8.25D+02 IAcc=3 IRadAn=         5 AccDes= 0.00D+00
 HarFok:  IExCor=  205 AccDes= 0.00D+00 IRadAn=         5 IDoV=-2 UseB2=F ITyADJ=14
 ICtDFT= 12500011 ScaDFX=  1.000000  1.000000  1.000000  1.000000
 Range of M.O.s used for correlation:    13   202
 NBasis=   202 NAE=    44 NBE=    44 NFC=    12 NFV=     0
 NROrb=    190 NOA=    32 NOB=    32 NVA=   158 NVB=   158
 Keep R1, R2, and R3 ints in memory in canonical form, NReq=656629584.
 Orbital symmetries:
       Occupied  (A) (A) (A) (A) (A) (A) (A) (A) (A) (A) (A) (A)
                 (A) (A) (A) (A) (A) (A) (A) (A) (A) (A) (A) (A)
                 (A) (A) (A) (A) (A) (A) (A) (A) (A) (A) (A) (A)
                 (A) (A) (A) (A) (A) (A) (A) (A)
       Virtual   (A) (A) (A) (A) (A) (A) (A) (A) (A) (A) (A) (A)
                 (A) (A) (A) (A) (A) (A) (A) (A) (A) (A) (A) (A)
                 (A) (A) (A) (A) (A) (A) (A) (A) (A) (A) (A) (A)
                 (A) (A) (A) (A) (A) (A) (A) (A) (A) (A) (A) (A)
                 (A) (A) (A) (A) (A) (A) (A) (A) (A) (A) (A) (A)
                 (A) (A) (A) (A) (A) (A) (A) (A) (A) (A) (A) (A)
                 (A) (A) (A) (A) (A) (A) (A) (A) (A) (A) (A) (A)
                 (A) (A) (A) (A) (A) (A) (A) (A) (A) (A) (A) (A)
                 (A) (A) (A) (A) (A) (A) (A) (A) (A) (A) (A) (A)
                 (A) (A) (A) (A) (A) (A) (A) (A) (A) (A) (A) (A)
                 (A) (A) (A) (A) (A) (A) (A) (A) (A) (A) (A) (A)
                 (A) (A) (A) (A) (A) (A) (A) (A) (A) (A) (A) (A)
                 (A) (A) (A) (A) (A) (A) (A) (A) (A) (A) (A) (A)
                 (A) (A)
    12 initial guesses have been made.
 Convergence on wavefunction:    0.001000000000000
 Iteration     1 Dimension    12 NMult     0 NNew     12
 CISAX will form    12 AO SS matrices at one time.
 New state      2 was old state      5
 Iteration     2 Dimension    18 NMult    12 NNew      6
 Iteration     3 Dimension    24 NMult    18 NNew      6
 Iteration     4 Dimension    30 NMult    24 NNew      6
 Iteration     5 Dimension    36 NMult    30 NNew      6
 Iteration     6 Dimension    38 NMult    36 NNew      2
 Iteration     7 Dimension    40 NMult    38 NNew      2
 Iteration     8 Dimension    42 NMult    40 NNew      2
 ***********************************************************************
 Excited states from <AA,BB:AA,BB> singles matrix:
 ***********************************************************************
 
 Ground to excited state transition densities written to RWF  633
 Ground to excited state transition electric dipole moments (Au):
       state          X           Y           Z        Dip. S.      Osc.
         1         0.1262     -0.0954     -0.0069      0.0251      0.0033
         2         0.0679      0.0607      0.0612      0.0120      0.0016
         3         0.2370     -0.0211      0.0619      0.0605      0.0086
 Ground to excited state transition velocity dipole moments (Au):
       state          X           Y           Z        Dip. S.      Osc.
         1        -0.0257      0.0174      0.0005      0.0010      0.0032
         2        -0.0094     -0.0149     -0.0137      0.0005      0.0017
         3        -0.0446     -0.0024     -0.0206      0.0024      0.0075
 Ground to excited state transition magnetic dipole moments (Au):
       state          X           Y           Z
         1        -0.0340      0.0382     -0.2669
         2        -0.2720     -0.2463      0.2053
         3         0.0804     -0.0975     -0.1501
 Ground to excited state transition velocity quadrupole moments (Au):
       state          XX          YY          ZZ          XY          XZ          YZ
         1         0.0900     -0.0083     -0.0028     -0.1235     -0.0501      0.0146
         2        -0.0875     -0.0533      0.1072     -0.0489      0.0291      0.0511
         3         0.0722      0.0896     -0.0426      0.0037     -0.0707      0.0591
 <0|del|b> * <b|rxdel|0> + <0|del|b> * <b|delr+rdel|0>
 Rotatory Strengths (R) in cgs (10**-40 erg-esu-cm/Gauss)
       state          XX          YY          ZZ    R(velocity)    E-M Angle
         1         2.4046      0.7693      1.8648      1.6796       80.37
         2         3.4549     -2.4800     11.1016      4.0255       68.66
         3         5.0759     -5.0486     -0.8967     -0.2898       91.56
 1/2[<0|r|b>*<b|rxdel|0> + (<0|rxdel|b>*<b|r|0>)*]
 Rotatory Strengths (R) in cgs (10**-40 erg-esu-cm/Gauss)
       state          XX          YY          ZZ     R(length)
         1         3.0377      2.5770     -1.3073      1.4358
         2        13.0602     10.5752     -8.8796      4.9186
         3       -13.4763     -1.4521      6.5721     -2.7854
  1/2[<0|del|b>*<b|r|0> + (<0|r|b>*<b|del|0>)*] (Au)
       state          X           Y           Z        Dip. S.   Osc.(frdel)
         1        -0.0032     -0.0017     -0.0000      0.0049      0.0033
         2        -0.0006     -0.0009     -0.0008      0.0024      0.0016
         3        -0.0106      0.0001     -0.0013      0.0118      0.0079

 Excitation energies and oscillator strengths:
 
 Excited State   1:      Singlet-A      5.3924 eV  229.92 nm  f=0.0033  <S**2>=0.000
      42 -> 45         0.25166
      42 -> 46         0.23651
      42 -> 47        -0.13733
      43 -> 45        -0.13133
      43 -> 46         0.36177
      44 -> 45         0.44500
 This state for optimization and/or second-order correction.
 Total Energy, E(TD-HF/TD-DFT) =  -554.584674519    
 Copying the excited state density for this state as the 1-particle RhoCI density.
 
 Excited State   2:      Singlet-A      5.4528 eV  227.38 nm  f=0.0016  <S**2>=0.000
      41 -> 46        -0.10997
      41 -> 47        -0.21017
      42 -> 46        -0.15135
      42 -> 47        -0.11880
      43 -> 46         0.17928
      43 -> 47         0.32653
      44 -> 46         0.32819
      44 -> 47         0.38495
 
 Excited State   3:      Singlet-A      5.8312 eV  212.62 nm  f=0.0086  <S**2>=0.000
      42 -> 45        -0.23157
      43 -> 45         0.47804
      43 -> 46        -0.13765
      44 -> 45         0.38985
      44 -> 46        -0.18382
 SavETr:  write IOETrn=   770 NScale= 10 NData=  16 NLR=1 NState=    3 LETran=      64.

 **********************************************************************

            Population analysis using the SCF Density.

 **********************************************************************

 Orbital symmetries:
       Occupied  (A) (A) (A) (A) (A) (A) (A) (A) (A) (A) (A) (A)
                 (A) (A) (A) (A) (A) (A) (A) (A) (A) (A) (A) (A)
                 (A) (A) (A) (A) (A) (A) (A) (A) (A) (A) (A) (A)
                 (A) (A) (A) (A) (A) (A) (A) (A)
       Virtual   (A) (A) (A) (A) (A) (A) (A) (A) (A) (A) (A) (A)
                 (A) (A) (A) (A) (A) (A) (A) (A) (A) (A) (A) (A)
                 (A) (A) (A) (A) (A) (A) (A) (A) (A) (A) (A) (A)
                 (A) (A) (A) (A) (A) (A) (A) (A) (A) (A) (A) (A)
                 (A) (A) (A) (A) (A) (A) (A) (A) (A) (A) (A) (A)
                 (A) (A) (A) (A) (A) (A) (A) (A) (A) (A) (A) (A)
                 (A) (A) (A) (A) (A) (A) (A) (A) (A) (A) (A) (A)
                 (A) (A) (A) (A) (A) (A) (A) (A) (A) (A) (A) (A)
                 (A) (A) (A) (A) (A) (A) (A) (A) (A) (A) (A) (A)
                 (A) (A) (A) (A) (A) (A) (A) (A) (A) (A) (A) (A)
                 (A) (A) (A) (A) (A) (A) (A) (A) (A) (A) (A) (A)
                 (A) (A) (A) (A) (A) (A) (A) (A) (A) (A) (A) (A)
                 (A) (A) (A) (A) (A) (A) (A) (A) (A) (A) (A) (A)
                 (A) (A)
 The electronic state is 1-A.
 Alpha  occ. eigenvalues --  -19.20114 -19.14415 -14.32005 -10.32273 -10.23476
 Alpha  occ. eigenvalues --  -10.20037 -10.19143 -10.19056 -10.19041 -10.18989
 Alpha  occ. eigenvalues --  -10.18867 -10.18724  -1.10947  -1.01900  -0.89680
 Alpha  occ. eigenvalues --   -0.85331  -0.77782  -0.74387  -0.72860  -0.67197
 Alpha  occ. eigenvalues --   -0.61092  -0.59668  -0.56639  -0.51886  -0.50502
 Alpha  occ. eigenvalues --   -0.49243  -0.48646  -0.46248  -0.45254  -0.44729
 Alpha  occ. eigenvalues --   -0.42481  -0.41793  -0.41254  -0.39329  -0.38743
 Alpha  occ. eigenvalues --   -0.36971  -0.35127  -0.33898  -0.33595  -0.32296
 Alpha  occ. eigenvalues --   -0.28319  -0.25213  -0.24330  -0.23847
 Alpha virt. eigenvalues --   -0.00356  -0.00084   0.00711   0.06725   0.09166
 Alpha virt. eigenvalues --    0.10571   0.12483   0.13200   0.14198   0.15783
 Alpha virt. eigenvalues --    0.16052   0.16659   0.18381   0.19492   0.20203
 Alpha virt. eigenvalues --    0.22145   0.22974   0.25762   0.26308   0.29932
 Alpha virt. eigenvalues --    0.31462   0.31862   0.34020   0.36246   0.39895
 Alpha virt. eigenvalues --    0.47667   0.51729   0.52458   0.53698   0.55600
 Alpha virt. eigenvalues --    0.55713   0.56485   0.58267   0.58916   0.59540
 Alpha virt. eigenvalues --    0.60269   0.61386   0.61582   0.62279   0.63387
 Alpha virt. eigenvalues --    0.64490   0.66352   0.67717   0.68861   0.69213
 Alpha virt. eigenvalues --    0.71796   0.74107   0.76111   0.77360   0.79936
 Alpha virt. eigenvalues --    0.80684   0.83513   0.83622   0.84243   0.85226
 Alpha virt. eigenvalues --    0.86882   0.88410   0.89782   0.90487   0.90908
 Alpha virt. eigenvalues --    0.91725   0.93149   0.94633   0.96007   0.98334
 Alpha virt. eigenvalues --    0.99165   1.00127   1.02073   1.03908   1.06527
 Alpha virt. eigenvalues --    1.07693   1.10429   1.12052   1.14278   1.15740
 Alpha virt. eigenvalues --    1.18855   1.20894   1.23922   1.25924   1.29531
 Alpha virt. eigenvalues --    1.33279   1.40671   1.43156   1.43645   1.45104
 Alpha virt. eigenvalues --    1.48335   1.49320   1.51066   1.51583   1.54452
 Alpha virt. eigenvalues --    1.58196   1.64386   1.67519   1.69928   1.74661
 Alpha virt. eigenvalues --    1.76783   1.78016   1.79970   1.81993   1.82260
 Alpha virt. eigenvalues --    1.84329   1.86683   1.89292   1.91159   1.92455
 Alpha virt. eigenvalues --    1.94609   1.96426   1.98074   2.00808   2.02948
 Alpha virt. eigenvalues --    2.05272   2.06091   2.10641   2.13887   2.14109
 Alpha virt. eigenvalues --    2.14974   2.16329   2.19714   2.21827   2.25648
 Alpha virt. eigenvalues --    2.26910   2.31081   2.34852   2.37290   2.38781
 Alpha virt. eigenvalues --    2.41355   2.45085   2.53426   2.54643   2.56034
 Alpha virt. eigenvalues --    2.58524   2.60148   2.63406   2.65280   2.67764
 Alpha virt. eigenvalues --    2.72229   2.75295   2.75615   2.78749   2.79885
 Alpha virt. eigenvalues --    2.87509   2.91669   2.98589   3.05826   3.13910
 Alpha virt. eigenvalues --    3.40892   3.79929   3.84716   4.08778   4.11523
 Alpha virt. eigenvalues --    4.12567   4.13518   4.27213   4.33300   4.34687
 Alpha virt. eigenvalues --    4.43200   4.59854   4.71750
          Condensed to atoms (all electrons):
               1          2          3          4          5          6
     1  C    5.123777   0.344793   0.288811  -0.033070  -0.025278   0.298243
     2  H    0.344793   0.652453  -0.048324  -0.004869  -0.004161  -0.039764
     3  N    0.288811  -0.048324   6.977434   0.304487   0.302592  -0.040460
     4  H   -0.033070  -0.004869   0.304487   0.438938  -0.028711   0.005170
     5  H   -0.025278  -0.004161   0.302592  -0.028711   0.433873  -0.009714
     6  C    0.298243  -0.039764  -0.040460   0.005170  -0.009714   4.349359
     7  O   -0.081976   0.001309   0.001069  -0.000090   0.000076   0.574246
     8  O   -0.095564   0.000139  -0.001059   0.000086   0.010326   0.284513
     9  H    0.011313  -0.000597  -0.000415   0.000029  -0.000274  -0.007713
    10  C    0.337182  -0.052024  -0.060768  -0.007042   0.006304  -0.028130
    11  H   -0.034344   0.000795   0.004605   0.000071  -0.000236  -0.003855
    12  H   -0.033512   0.006950   0.003822  -0.001228  -0.000091  -0.005660
    13  C   -0.029582  -0.005004  -0.002599   0.005072  -0.000074   0.004214
    14  C    0.002888   0.000028  -0.000048  -0.000146   0.000008  -0.000119
    15  C   -0.001032   0.002519  -0.004489   0.008494  -0.000005   0.000373
    16  C   -0.000144   0.000004   0.000002  -0.000029  -0.000000   0.000001
    17  H    0.000159   0.000003  -0.000004  -0.000002   0.000000  -0.000005
    18  C    0.000043  -0.000096  -0.000033  -0.000073   0.000005  -0.000004
    19  H    0.005878  -0.000380   0.001851   0.002135   0.000433   0.000016
    20  C    0.000008  -0.000009   0.000002  -0.000010   0.000000   0.000000
    21  H    0.000002   0.000000   0.000000  -0.000000   0.000000  -0.000000
    22  H    0.000005   0.000011  -0.000002  -0.000005  -0.000000  -0.000000
    23  H   -0.000000  -0.000000   0.000000  -0.000000  -0.000000  -0.000000
               7          8          9         10         11         12
     1  C   -0.081976  -0.095564   0.011313   0.337182  -0.034344  -0.033512
     2  H    0.001309   0.000139  -0.000597  -0.052024   0.000795   0.006950
     3  N    0.001069  -0.001059  -0.000415  -0.060768   0.004605   0.003822
     4  H   -0.000090   0.000086   0.000029  -0.007042   0.000071  -0.001228
     5  H    0.000076   0.010326  -0.000274   0.006304  -0.000236  -0.000091
     6  C    0.574246   0.284513  -0.007713  -0.028130  -0.003855  -0.005660
     7  O    8.028553  -0.084346   0.011496   0.001991   0.009553   0.002039
     8  O   -0.084346   8.247189   0.217554   0.002497   0.000220  -0.000041
     9  H    0.011496   0.217554   0.356994  -0.000268  -0.000026  -0.000015
    10  C    0.001991   0.002497  -0.000268   5.234918   0.353185   0.350990
    11  H    0.009553   0.000220  -0.000026   0.353185   0.552320  -0.027971
    12  H    0.002039  -0.000041  -0.000015   0.350990  -0.027971   0.562047
    13  C    0.000718  -0.000013   0.000001   0.331242  -0.030347  -0.030245
    14  C   -0.000003   0.000000  -0.000000  -0.053856  -0.004829  -0.004699
    15  C    0.000000  -0.000002   0.000000  -0.070834   0.000122   0.002292
    16  C   -0.000000  -0.000000   0.000000   0.005848  -0.000052   0.000076
    17  H    0.000002   0.000000  -0.000000  -0.008912   0.001274   0.003715
    18  C   -0.000000  -0.000000   0.000000   0.006991  -0.000125  -0.000144
    19  H    0.000001   0.000002  -0.000000  -0.012099  -0.000011   0.000009
    20  C    0.000000  -0.000000   0.000000   0.000319   0.000030   0.000017
    21  H    0.000000   0.000000  -0.000000  -0.000177   0.000000  -0.000004
    22  H   -0.000000   0.000000  -0.000000  -0.000178   0.000002   0.000003
    23  H    0.000000  -0.000000  -0.000000   0.000008  -0.000000  -0.000000
              13         14         15         16         17         18
     1  C   -0.029582   0.002888  -0.001032  -0.000144   0.000159   0.000043
     2  H   -0.005004   0.000028   0.002519   0.000004   0.000003  -0.000096
     3  N   -0.002599  -0.000048  -0.004489   0.000002  -0.000004  -0.000033
     4  H    0.005072  -0.000146   0.008494  -0.000029  -0.000002  -0.000073
     5  H   -0.000074   0.000008  -0.000005  -0.000000   0.000000   0.000005
     6  C    0.004214  -0.000119   0.000373   0.000001  -0.000005  -0.000004
     7  O    0.000718  -0.000003   0.000000  -0.000000   0.000002  -0.000000
     8  O   -0.000013   0.000000  -0.000002  -0.000000   0.000000  -0.000000
     9  H    0.000001  -0.000000   0.000000   0.000000  -0.000000   0.000000
    10  C    0.331242  -0.053856  -0.070834   0.005848  -0.008912   0.006991
    11  H   -0.030347  -0.004829   0.000122  -0.000052   0.001274  -0.000125
    12  H   -0.030245  -0.004699   0.002292   0.000076   0.003715  -0.000144
    13  C    4.676501   0.534900   0.546091  -0.015185  -0.049046  -0.018049
    14  C    0.534900   4.962217  -0.036920   0.527691   0.358309  -0.045615
    15  C    0.546091  -0.036920   4.991430  -0.047428   0.006307   0.515300
    16  C   -0.015185   0.527691  -0.047428   4.865545  -0.045902  -0.026532
    17  H   -0.049046   0.358309   0.006307  -0.045902   0.606969   0.000323
    18  C   -0.018049  -0.045615   0.515300  -0.026532   0.000323   4.874035
    19  H   -0.049981   0.006004   0.350885   0.000403  -0.000177  -0.044586
    20  C   -0.035444  -0.034809  -0.034734   0.545342   0.004981   0.555405
    21  H    0.003744  -0.039481   0.000830   0.356966  -0.005793   0.004625
    22  H    0.003649   0.000890  -0.039352   0.004547   0.000018   0.355851
    23  H    0.000741   0.004552   0.004750  -0.042956  -0.000179  -0.042963
              19         20         21         22         23
     1  C    0.005878   0.000008   0.000002   0.000005  -0.000000
     2  H   -0.000380  -0.000009   0.000000   0.000011  -0.000000
     3  N    0.001851   0.000002   0.000000  -0.000002   0.000000
     4  H    0.002135  -0.000010  -0.000000  -0.000005  -0.000000
     5  H    0.000433   0.000000   0.000000  -0.000000  -0.000000
     6  C    0.000016   0.000000  -0.000000  -0.000000  -0.000000
     7  O    0.000001   0.000000   0.000000  -0.000000   0.000000
     8  O    0.000002  -0.000000   0.000000   0.000000  -0.000000
     9  H   -0.000000   0.000000  -0.000000  -0.000000  -0.000000
    10  C   -0.012099   0.000319  -0.000177  -0.000178   0.000008
    11  H   -0.000011   0.000030   0.000000   0.000002  -0.000000
    12  H    0.000009   0.000017  -0.000004   0.000003  -0.000000
    13  C   -0.049981  -0.035444   0.003744   0.003649   0.000741
    14  C    0.006004  -0.034809  -0.039481   0.000890   0.004552
    15  C    0.350885  -0.034734   0.000830  -0.039352   0.004750
    16  C    0.000403   0.545342   0.356966   0.004547  -0.042956
    17  H   -0.000177   0.004981  -0.005793   0.000018  -0.000179
    18  C   -0.044586   0.555405   0.004625   0.355851  -0.042963
    19  H    0.618907   0.004855   0.000019  -0.005790  -0.000188
    20  C    0.004855   4.851047  -0.043585  -0.042701   0.358905
    21  H    0.000019  -0.043585   0.597479  -0.000192  -0.005467
    22  H   -0.005790  -0.042701  -0.000192   0.599815  -0.005551
    23  H   -0.000188   0.358905  -0.005467  -0.005551   0.599132
 Mulliken charges:
               1
     1  C   -0.078597
     2  H    0.146226
     3  N   -0.726474
     4  H    0.310792
     5  H    0.314926
     6  C    0.619288
     7  O   -0.464635
     8  O   -0.581502
     9  H    0.411920
    10  C   -0.337187
    11  H    0.179620
    12  H    0.171652
    13  C    0.158698
    14  C   -0.176962
    15  C   -0.194596
    16  C   -0.128197
    17  H    0.127961
    18  C   -0.134356
    19  H    0.121811
    20  C   -0.129619
    21  H    0.131035
    22  H    0.128981
    23  H    0.129217
 Sum of Mulliken charges =  -0.00000
 Mulliken charges with hydrogens summed into heavy atoms:
               1
     1  C    0.067629
     3  N   -0.100756
     6  C    0.619288
     7  O   -0.464635
     8  O   -0.169582
    10  C    0.014085
    13  C    0.158698
    14  C   -0.049001
    15  C   -0.072785
    16  C    0.002838
    18  C   -0.005376
    20  C   -0.000403
 Electronic spatial extent (au):  <R**2>=           2705.3800
 Charge=             -0.0000 electrons
 Dipole moment (field-independent basis, Debye):
    X=             -0.3452    Y=             -1.9402    Z=             -0.6084  Tot=              2.0625
 Quadrupole moment (field-independent basis, Debye-Ang):
   XX=            -60.2416   YY=            -67.8094   ZZ=            -73.9306
   XY=             -4.9689   XZ=             -1.8444   YZ=              2.7614
 Traceless Quadrupole moment (field-independent basis, Debye-Ang):
   XX=              7.0856   YY=             -0.4822   ZZ=             -6.6034
   XY=             -4.9689   XZ=             -1.8444   YZ=              2.7614
 Octapole moment (field-independent basis, Debye-Ang**2):
  XXX=             64.1525  YYY=            -12.9342  ZZZ=             -5.3111  XYY=             -6.2556
  XXY=            -13.1659  XXZ=             -3.4926  XZZ=             13.8092  YZZ=              0.2022
  YYZ=              5.6685  XYZ=             -1.5546
 Hexadecapole moment (field-independent basis, Debye-Ang**3):
 XXXX=          -2278.8966 YYYY=           -465.1261 ZZZZ=           -187.5253 XXXY=            -39.5592
 XXXZ=            -24.0400 YYYX=            -28.7951 YYYZ=             -1.5439 ZZZX=            -19.2364
 ZZZY=             -3.1266 XXYY=           -570.6965 XXZZ=           -525.6036 YYZZ=           -106.1345
 XXYZ=             27.8235 YYXZ=             10.5479 ZZXY=              2.8747
 N-N= 6.637503175819D+02 E-N=-2.619346215854D+03  KE= 5.496190023953D+02
 Unable to Open any file for archive entry.
 1\1\GINC-CCC147\SP\RB3LYP TD-FC\6-31G(d)\C9H11N1O2\ROOT\21-Feb-2025\0\
 \# td=(nstat=3) b3lyp/6-31g(d)\\phe | No.9\\0,1\C,0,-1.434492,-0.32990
 8,0.049371\H,0,-1.243264,-0.871359,0.997344\N,0,-1.44553,-1.199185,-1.
 132922\H,0,-0.517646,-1.594318,-1.269816\H,0,-2.092101,-1.972095,-0.99
 3806\C,0,-2.82556,0.273528,0.228354\O,0,-3.082348,1.430638,0.4709\O,0,
 -3.787394,-0.678859,0.129095\H,0,-4.638299,-0.219384,0.258817\C,0,-0.3
 88769,0.777014,-0.101833\H,0,-0.58232,1.530935,0.670414\H,0,-0.566652,
 1.27596,-1.06201\C,0,1.066184,0.340276,-0.018687\C,0,2.061739,1.269439
 ,-0.361098\C,0,1.47674,-0.922128,0.42933\C,0,3.414182,0.949976,-0.2667
 81\H,0,1.765744,2.257193,-0.708353\C,0,2.833089,-1.249135,0.522825\H,0
 ,0.740698,-1.668596,0.715838\C,0,3.807394,-0.31585,0.175718\H,0,4.1628
 92,1.689165,-0.539856\H,0,3.123044,-2.237318,0.870768\H,0,4.861519,-0.
 569398,0.247954\\Version=ES64L-G16RevC.02\State=1-A\HF=-554.782843\RMS
 D=4.575e-09\PG=C01 [X(C9H11N1O2)]\\@
 The archive entry for this job was punched.


 IF AT FIRST YOU DON'T SUCCEED, TRY LOOKING IN 
 THE WASTEBASKET FOR THE DIRECTIONS.
 Job cpu time:       0 days  0 hours 10 minutes 12.8 seconds.
 Elapsed time:       0 days  0 hours  1 minutes 21.8 seconds.
 File lengths (MBytes):  RWF=    272 Int=      0 D2E=      0 Chk=      8 Scr=      1
 Normal termination of Gaussian 16 at Fri Feb 21 15:15:36 2025.
