 Entering Gaussian System, Link 0=/apl/gaussian/16c02/g16/._.g16
 Initial command:
 /apl/gaussian/16c02/g16/l1.exe "/lwork/users/ux8/8287062.ccpbs1/gaussian/Gau-680365.inp" -scrdir="/lwork/users/ux8/8287062.ccpbs1/gaussian/"
 Default CPUs for threads: 16,17,18,19,20,21,22,23
 Default is to use a total of   8 processors:
                                8 via shared-memory
                                1 via Linda
 Entering Link 1 = /apl/gaussian/16c02/g16/l1.exe PID=    680366.
  
 Copyright (c) 1988-2021, Gaussian, Inc.  All Rights Reserved.
  
 This is part of the Gaussian(R) 16 program.  It is based on
 the Gaussian(R) 09 system (copyright 2009, Gaussian, Inc.),
 the Gaussian(R) 03 system (copyright 2003, Gaussian, Inc.),
 the Gaussian(R) 98 system (copyright 1998, Gaussian, Inc.),
 the Gaussian(R) 94 system (copyright 1995, Gaussian, Inc.),
 the Gaussian 92(TM) system (copyright 1992, Gaussian, Inc.),
 the Gaussian 90(TM) system (copyright 1990, Gaussian, Inc.),
 the Gaussian 88(TM) system (copyright 1988, Gaussian, Inc.),
 the Gaussian 86(TM) system (copyright 1986, Carnegie Mellon
 University), and the Gaussian 82(TM) system (copyright 1983,
 Carnegie Mellon University). Gaussian is a federally registered
 trademark of Gaussian, Inc.
  
 This software contains proprietary and confidential information,
 including trade secrets, belonging to Gaussian, Inc.
  
 This software is provided under written license and may be
 used, copied, transmitted, or stored only in accord with that
 written license.
  
 The following legend is applicable only to US Government
 contracts under FAR:
  
                    RESTRICTED RIGHTS LEGEND
  
 Use, reproduction and disclosure by the US Government is
 subject to restrictions as set forth in subparagraphs (a)
 and (c) of the Commercial Computer Software - Restricted
 Rights clause in FAR 52.227-19.
  
 Gaussian, Inc.
 340 Quinnipiac St., Bldg. 40, Wallingford CT 06492
  
  
 ---------------------------------------------------------------
 Warning -- This program may not be used in any manner that
 competes with the business of Gaussian, Inc. or will provide
 assistance to any competitor of Gaussian, Inc.  The licensee
 of this program is prohibited from giving any competitor of
 Gaussian, Inc. access to this program.  By using this program,
 the user acknowledges that Gaussian, Inc. is engaged in the
 business of creating and licensing software in the field of
 computational chemistry and represents and warrants to the
 licensee that it is not a competitor of Gaussian, Inc. and that
 it will not use this program in any manner prohibited above.
 ---------------------------------------------------------------
  

 Cite this work as:
 Gaussian 16, Revision C.02,
 M. J. Frisch, G. W. Trucks, H. B. Schlegel, G. E. Scuseria, 
 M. A. Robb, J. R. Cheeseman, G. Scalmani, V. Barone, 
 G. A. Petersson, H. Nakatsuji, X. Li, M. Caricato, A. V. Marenich, 
 J. Bloino, B. G. Janesko, R. Gomperts, B. Mennucci, H. P. Hratchian, 
 J. V. Ortiz, A. F. Izmaylov, J. L. Sonnenberg, D. Williams-Young, 
 F. Ding, F. Lipparini, F. Egidi, J. Goings, B. Peng, A. Petrone, 
 T. Henderson, D. Ranasinghe, V. G. Zakrzewski, J. Gao, N. Rega, 
 G. Zheng, W. Liang, M. Hada, M. Ehara, K. Toyota, R. Fukuda, 
 J. Hasegawa, M. Ishida, T. Nakajima, Y. Honda, O. Kitao, H. Nakai, 
 T. Vreven, K. Throssell, J. A. Montgomery, Jr., J. E. Peralta, 
 F. Ogliaro, M. J. Bearpark, J. J. Heyd, E. N. Brothers, K. N. Kudin, 
 V. N. Staroverov, T. A. Keith, R. Kobayashi, J. Normand, 
 K. Raghavachari, A. P. Rendell, J. C. Burant, S. S. Iyengar, 
 J. Tomasi, M. Cossi, J. M. Millam, M. Klene, C. Adamo, R. Cammi, 
 J. W. Ochterski, R. L. Martin, K. Morokuma, O. Farkas, 
 J. B. Foresman, and D. J. Fox, Gaussian, Inc., Wallingford CT, 2019.
 
 ******************************************
 Gaussian 16:  ES64L-G16RevC.02  7-Dec-2021
                21-Feb-2025 
 ******************************************
 %chk=phe.003.tddft.chk
 %mem=9600MB
 SetSPE:  set environment variable "OMP_PROC_BIND" = "true"
 SetSPE:  set environment variable "OMP_PLACES" = "{16},{17},{18},{19},{20},{21},{22},{23}"
 -----------------------------
 # td=(nstat=3) b3lyp/6-31g(d)
 -----------------------------
 1/38=1,172=1/1;
 2/12=2,17=6,18=5,40=1/2;
 3/5=1,6=6,7=1,11=9,25=1,30=1,74=-5/1,2,3,8;
 4//1;
 5/5=2,38=5/2;
 8/6=1,10=2,108=3/1;
 9/41=3,42=1,70=2/14;
 6/7=2,8=2,9=2,10=2/1;
 99/5=1,9=1/99;
 ----------
 phe | No.3
 ----------
 Symbolic Z-matrix:
 Charge =  0 Multiplicity = 1
 C                    -1.38127   0.01262  -0.32515 
 H                    -1.17657  -0.76791  -1.0852 
 N                    -1.25351   1.37638  -0.84693 
 H                    -0.29765   1.51337  -1.17143 
 H                    -1.8668    1.49906  -1.64945 
 C                    -2.82343  -0.22838   0.11041 
 O                    -3.18267  -0.76348   1.13432 
 O                    -3.7014    0.19512  -0.8347 
 H                    -4.59126  -0.00083  -0.48546 
 C                    -0.41565  -0.20078   0.85379 
 H                    -0.64617  -1.16873   1.31129 
 H                    -0.62355   0.56738   1.60522 
 C                     1.03943  -0.14816   0.43398 
 C                     1.86127   0.92171   0.81227 
 C                     1.60254  -1.17774  -0.33628 
 C                     3.20317   0.96898   0.42697 
 H                     1.44326   1.72452   1.41493 
 C                     2.94115  -1.1342   -0.72445 
 H                     0.98766  -2.02759  -0.62617 
 C                     3.74717  -0.05836  -0.34401 
 H                     3.82259   1.80804   0.73319 
 H                     3.35778  -1.94397  -1.31799 
 H                     4.79153  -0.02513  -0.64263 
 
                          Input orientation:                          
 ---------------------------------------------------------------------
 Center     Atomic      Atomic             Coordinates (Angstroms)
 Number     Number       Type             X           Y           Z
 ---------------------------------------------------------------------
      1          6           0       -1.381270    0.012619   -0.325151
      2          1           0       -1.176569   -0.767905   -1.085203
      3          7           0       -1.253511    1.376377   -0.846931
      4          1           0       -0.297649    1.513370   -1.171430
      5          1           0       -1.866795    1.499057   -1.649452
      6          6           0       -2.823428   -0.228381    0.110414
      7          8           0       -3.182669   -0.763482    1.134324
      8          8           0       -3.701397    0.195115   -0.834700
      9          1           0       -4.591255   -0.000833   -0.485460
     10          6           0       -0.415650   -0.200784    0.853792
     11          1           0       -0.646168   -1.168730    1.311292
     12          1           0       -0.623549    0.567378    1.605219
     13          6           0        1.039431   -0.148159    0.433980
     14          6           0        1.861272    0.921711    0.812269
     15          6           0        1.602536   -1.177744   -0.336278
     16          6           0        3.203165    0.968978    0.426973
     17          1           0        1.443256    1.724519    1.414927
     18          6           0        2.941154   -1.134195   -0.724450
     19          1           0        0.987657   -2.027593   -0.626169
     20          6           0        3.747170   -0.058361   -0.344010
     21          1           0        3.822588    1.808037    0.733191
     22          1           0        3.357779   -1.943972   -1.317992
     23          1           0        4.791525   -0.025133   -0.642627
 ---------------------------------------------------------------------
                    Distance matrix (angstroms):
                    1          2          3          4          5
     1  C    0.000000
     2  H    1.108512   0.000000
     3  N    1.465746   2.158851   0.000000
     4  H    2.035357   2.446252   1.018695   0.000000
     5  H    2.049148   2.435961   1.017452   1.640405   0.000000
     6  C    1.525653   2.105405   2.440573   3.325114   2.645055
     7  O    2.444880   2.991782   3.496572   4.338652   3.820997
     8  O    2.382422   2.713838   2.718028   3.665608   2.393711
     9  H    3.214014   3.550799   3.628761   4.604174   3.320727
    10  C    1.538788   2.158779   2.466152   2.655894   3.355818
    11  H    2.148000   2.487001   3.391808   3.671380   4.168096
    12  H    2.146678   3.054044   2.657888   2.951422   3.606462
    13  C    2.542031   2.757292   3.036861   2.669420   3.937024
    14  C    3.554469   3.960263   3.558306   2.990997   4.504651
    15  C    3.212505   2.907281   3.865398   3.398570   4.574489
    16  C    4.743138   4.948283   4.653038   3.886766   5.504273
    17  H    3.733152   4.396170   3.536913   3.124832   4.516380
    18  C    4.489763   4.149693   4.890111   4.207046   5.559318
    19  H    3.140843   2.545859   4.081493   3.806276   4.651050
    20  C    5.128966   5.029515   5.226683   4.417638   5.970455
    21  H    5.605689   5.910466   5.333844   4.548710   6.175883
    22  H    5.222314   4.690164   5.701808   5.033572   6.265819
    23  H    6.181069   6.030400   6.208738   5.342875   6.904352
                    6          7          8          9         10
     6  C    0.000000
     7  O    1.209867   0.000000
     8  O    1.357726   2.250565   0.000000
     9  H    1.879377   2.278036   0.975813   0.000000
    10  C    2.520073   2.837556   3.715357   4.389676   0.000000
    11  H    2.658350   2.574758   3.974894   4.489545   1.095155
    12  H    2.776174   2.922674   3.945242   4.520674   1.094503
    13  C    3.877217   4.323798   4.919638   5.707162   1.515346
    14  C    4.874600   5.327751   5.846686   6.646073   2.538916
    15  C    4.548624   5.023193   5.501352   6.306379   2.538463
    16  C    6.152536   6.654370   7.061420   7.907342   3.827054
    17  H    4.870335   5.260045   5.819566   6.557716   2.734446
    18  C    5.894735   6.410435   6.775153   7.620946   3.824949
    19  H    4.278328   4.699886   5.193375   5.937324   2.738026
    20  C    6.588487   7.120768   7.469014   8.339823   4.334061
    21  H    6.978852   7.473101   7.853034   8.691943   4.691755
    22  H    6.571980   7.084128   7.391971   8.225329   4.689789
    23  H    7.654795   8.203078   8.497948   9.384128   5.420774
                   11         12         13         14         15
    11  H    0.000000
    12  H    1.760959   0.000000
    13  C    2.156962   2.156223   0.000000
    14  C    3.302457   2.632234   1.401123   0.000000
    15  C    2.787694   3.430789   1.403720   2.407035   0.000000
    16  C    4.491011   4.024088   2.435116   1.396912   2.784417
    17  H    3.570339   2.376314   2.152267   1.087398   3.393408
    18  C    4.124841   4.585828   2.435319   2.784672   1.394443
    19  H    2.675964   3.782717   2.158441   3.395689   1.088281
    20  C    4.824351   4.826409   2.818720   2.419532   2.419201
    21  H    5.400474   4.697638   3.414995   2.153738   3.871341
    22  H    4.852394   5.541030   3.416005   3.871651   2.152149
    23  H    5.890171   5.892954   3.905436   3.405821   3.404704
                   16         17         18         19         20
    16  C    0.000000
    17  H    2.155035   0.000000
    18  C    2.412004   3.872064   0.000000
    19  H    3.872599   4.295578   2.150342   0.000000
    20  C    1.394913   3.403019   1.397074   3.401823   0.000000
    21  H    1.086956   2.476481   3.399761   4.959511   2.156268
    22  H    3.399130   4.959039   1.087018   2.470443   2.157729
    23  H    2.157589   4.301827   2.158839   4.298782   1.086717
                   21         22         23
    21  H    0.000000
    22  H    4.301275   0.000000
    23  H    2.488418   2.488712   0.000000
 Stoichiometry    C9H11NO2
 Framework group  C1[X(C9H11NO2)]
 Deg. of freedom    63
 Full point group                 C1      NOp   1
 Largest Abelian subgroup         C1      NOp   1
 Largest concise Abelian subgroup C1      NOp   1
                         Standard orientation:                         
 ---------------------------------------------------------------------
 Center     Atomic      Atomic             Coordinates (Angstroms)
 Number     Number       Type             X           Y           Z
 ---------------------------------------------------------------------
      1          6           0       -1.381270    0.012619   -0.325151
      2          1           0       -1.176569   -0.767905   -1.085203
      3          7           0       -1.253511    1.376377   -0.846931
      4          1           0       -0.297649    1.513370   -1.171430
      5          1           0       -1.866795    1.499057   -1.649452
      6          6           0       -2.823428   -0.228381    0.110414
      7          8           0       -3.182669   -0.763482    1.134324
      8          8           0       -3.701397    0.195115   -0.834700
      9          1           0       -4.591255   -0.000833   -0.485460
     10          6           0       -0.415650   -0.200784    0.853792
     11          1           0       -0.646168   -1.168730    1.311292
     12          1           0       -0.623549    0.567378    1.605219
     13          6           0        1.039431   -0.148159    0.433980
     14          6           0        1.861272    0.921711    0.812269
     15          6           0        1.602536   -1.177744   -0.336278
     16          6           0        3.203165    0.968978    0.426973
     17          1           0        1.443256    1.724519    1.414927
     18          6           0        2.941154   -1.134195   -0.724450
     19          1           0        0.987657   -2.027593   -0.626169
     20          6           0        3.747170   -0.058361   -0.344010
     21          1           0        3.822588    1.808037    0.733191
     22          1           0        3.357779   -1.943972   -1.317992
     23          1           0        4.791525   -0.025133   -0.642627
 ---------------------------------------------------------------------
 Rotational constants (GHZ):           2.5159517           0.4313528           0.4222746
 Standard basis: 6-31G(d) (6D, 7F)
 There are   202 symmetry adapted cartesian basis functions of A   symmetry.
 There are   202 symmetry adapted basis functions of A   symmetry.
   202 basis functions,   380 primitive gaussians,   202 cartesian basis functions
    44 alpha electrons       44 beta electrons
       nuclear repulsion energy       665.4775443223 Hartrees.
 NAtoms=   23 NActive=   23 NUniq=   23 SFac= 1.00D+00 NAtFMM=   60 NAOKFM=F Big=F
 Integral buffers will be    131072 words long.
 Regular integral format.
 Two-electron integral symmetry is turned on.
 One-electron integrals computed using PRISM.
 NBasis=   202 RedAO= T EigKep=  4.67D-04  NBF=   202
 NBsUse=   202 1.00D-06 EigRej= -1.00D+00 NBFU=   202
 ExpMin= 1.61D-01 ExpMax= 5.48D+03 ExpMxC= 8.25D+02 IAcc=3 IRadAn=         5 AccDes= 0.00D+00
 Harris functional with IExCor=  402 and IRadAn=       5 diagonalized for initial guess.
 HarFok:  IExCor=  402 AccDes= 0.00D+00 IRadAn=         5 IDoV= 1 UseB2=F ITyADJ=14
 ICtDFT=  3500011 ScaDFX=  1.000000  1.000000  1.000000  1.000000
 FoFCou: FMM=F IPFlag=           0 FMFlag=      100000 FMFlg1=           0
         NFxFlg=           0 DoJE=T BraDBF=F KetDBF=T FulRan=T
         wScrn=  0.000000 ICntrl=       500 IOpCl=  0 I1Cent=   200000004 NGrid=           0
         NMat0=    1 NMatS0=      1 NMatT0=    0 NMatD0=    1 NMtDS0=    0 NMtDT0=    0
 Petite list used in FoFCou.
 Requested convergence on RMS density matrix=1.00D-08 within 128 cycles.
 Requested convergence on MAX density matrix=1.00D-06.
 Requested convergence on             energy=1.00D-06.
 No special actions if energy rises.
 Integral accuracy reduced to 1.0D-05 until final iterations.
 Initial convergence to 1.0D-05 achieved.  Increase integral accuracy.
 SCF Done:  E(RB3LYP) =  -554.786238958     A.U. after   14 cycles
            NFock= 14  Conv=0.51D-08     -V/T= 2.0094
 DoSCS=F DFT=T ScalE2(SS,OS)=  1.000000  1.000000
 ExpMin= 1.61D-01 ExpMax= 5.48D+03 ExpMxC= 8.25D+02 IAcc=3 IRadAn=         5 AccDes= 0.00D+00
 HarFok:  IExCor=  205 AccDes= 0.00D+00 IRadAn=         5 IDoV=-2 UseB2=F ITyADJ=14
 ICtDFT= 12500011 ScaDFX=  1.000000  1.000000  1.000000  1.000000
 Range of M.O.s used for correlation:    13   202
 NBasis=   202 NAE=    44 NBE=    44 NFC=    12 NFV=     0
 NROrb=    190 NOA=    32 NOB=    32 NVA=   158 NVB=   158
 Keep R1, R2, and R3 ints in memory in canonical form, NReq=656629584.
 Orbital symmetries:
       Occupied  (A) (A) (A) (A) (A) (A) (A) (A) (A) (A) (A) (A)
                 (A) (A) (A) (A) (A) (A) (A) (A) (A) (A) (A) (A)
                 (A) (A) (A) (A) (A) (A) (A) (A) (A) (A) (A) (A)
                 (A) (A) (A) (A) (A) (A) (A) (A)
       Virtual   (A) (A) (A) (A) (A) (A) (A) (A) (A) (A) (A) (A)
                 (A) (A) (A) (A) (A) (A) (A) (A) (A) (A) (A) (A)
                 (A) (A) (A) (A) (A) (A) (A) (A) (A) (A) (A) (A)
                 (A) (A) (A) (A) (A) (A) (A) (A) (A) (A) (A) (A)
                 (A) (A) (A) (A) (A) (A) (A) (A) (A) (A) (A) (A)
                 (A) (A) (A) (A) (A) (A) (A) (A) (A) (A) (A) (A)
                 (A) (A) (A) (A) (A) (A) (A) (A) (A) (A) (A) (A)
                 (A) (A) (A) (A) (A) (A) (A) (A) (A) (A) (A) (A)
                 (A) (A) (A) (A) (A) (A) (A) (A) (A) (A) (A) (A)
                 (A) (A) (A) (A) (A) (A) (A) (A) (A) (A) (A) (A)
                 (A) (A) (A) (A) (A) (A) (A) (A) (A) (A) (A) (A)
                 (A) (A) (A) (A) (A) (A) (A) (A) (A) (A) (A) (A)
                 (A) (A) (A) (A) (A) (A) (A) (A) (A) (A) (A) (A)
                 (A) (A)
    12 initial guesses have been made.
 Convergence on wavefunction:    0.001000000000000
 Iteration     1 Dimension    12 NMult     0 NNew     12
 CISAX will form    12 AO SS matrices at one time.
 New state      2 was old state      5
 Iteration     2 Dimension    18 NMult    12 NNew      6
 Iteration     3 Dimension    24 NMult    18 NNew      6
 Iteration     4 Dimension    30 NMult    24 NNew      6
 Iteration     5 Dimension    36 NMult    30 NNew      6
 Iteration     6 Dimension    38 NMult    36 NNew      2
 ***********************************************************************
 Excited states from <AA,BB:AA,BB> singles matrix:
 ***********************************************************************
 
 Ground to excited state transition densities written to RWF  633
 Ground to excited state transition electric dipole moments (Au):
       state          X           Y           Z        Dip. S.      Osc.
         1         0.1101     -0.0778     -0.0622      0.0221      0.0029
         2        -0.1204      0.0299      0.0361      0.0167      0.0022
         3         0.2487     -0.0562     -0.0180      0.0653      0.0091
 Ground to excited state transition velocity dipole moments (Au):
       state          X           Y           Z        Dip. S.      Osc.
         1        -0.0220      0.0169      0.0152      0.0010      0.0034
         2         0.0176     -0.0067     -0.0103      0.0005      0.0015
         3        -0.0522      0.0163      0.0111      0.0031      0.0099
 Ground to excited state transition magnetic dipole moments (Au):
       state          X           Y           Z
         1         0.0029     -0.1354      0.1532
         2         0.2437      0.0982     -0.0779
         3         0.2100      0.0706     -0.1282
 Ground to excited state transition velocity quadrupole moments (Au):
       state          XX          YY          ZZ          XY          XZ          YZ
         1        -0.0628     -0.0136     -0.0044      0.0819      0.0311     -0.0321
         2        -0.1007      0.0675      0.0023      0.0116      0.1016      0.0747
         3        -0.2617      0.0477     -0.0315     -0.0431      0.0163     -0.0056
 <0|del|b> * <b|rxdel|0> + <0|del|b> * <b|delr+rdel|0>
 Rotatory Strengths (R) in cgs (10**-40 erg-esu-cm/Gauss)
       state          XX          YY          ZZ    R(velocity)    E-M Angle
         1         1.3464      3.0700     -4.5044     -0.0293       90.00
         2         1.2441     11.4834      2.8550      5.1942       41.23
         3        -1.7079    -19.5524    -16.5433    -12.6012      141.82
 1/2[<0|r|b>*<b|rxdel|0> + (<0|rxdel|b>*<b|r|0>)*]
 Rotatory Strengths (R) in cgs (10**-40 erg-esu-cm/Gauss)
       state          XX          YY          ZZ     R(length)
         1        -0.2253     -7.4543      6.7416     -0.3127
         2        20.7564     -2.0779      1.9868      6.8885
         3       -36.9307      2.8055     -1.6358    -11.9203
  1/2[<0|del|b>*<b|r|0> + (<0|r|b>*<b|del|0>)*] (Au)
       state          X           Y           Z        Dip. S.   Osc.(frdel)
         1        -0.0024     -0.0013     -0.0009      0.0047      0.0031
         2        -0.0021     -0.0002     -0.0004      0.0027      0.0018
         3        -0.0130     -0.0009     -0.0002      0.0141      0.0094

 Excitation energies and oscillator strengths:
 
 Excited State   1:      Singlet-A      5.4092 eV  229.21 nm  f=0.0029  <S**2>=0.000
      42 -> 45         0.32630
      42 -> 46         0.28771
      43 -> 45        -0.16179
      43 -> 46         0.28840
      43 -> 47        -0.11935
      44 -> 45         0.37403
      44 -> 46        -0.20779
 This state for optimization and/or second-order correction.
 Total Energy, E(TD-HF/TD-DFT) =  -554.587455797    
 Copying the excited state density for this state as the 1-particle RhoCI density.
 
 Excited State   2:      Singlet-A      5.4553 eV  227.27 nm  f=0.0022  <S**2>=0.000
      41 -> 47         0.23416
      42 -> 45         0.10504
      43 -> 45        -0.23253
      43 -> 46         0.15035
      43 -> 47         0.29972
      44 -> 45        -0.17848
      44 -> 47         0.46723
 
 Excited State   3:      Singlet-A      5.7154 eV  216.93 nm  f=0.0091  <S**2>=0.000
      42 -> 45        -0.15413
      43 -> 45         0.27356
      43 -> 47         0.14479
      44 -> 45         0.48333
      44 -> 46         0.32263
      44 -> 47         0.15081
 SavETr:  write IOETrn=   770 NScale= 10 NData=  16 NLR=1 NState=    3 LETran=      64.

 **********************************************************************

            Population analysis using the SCF Density.

 **********************************************************************

 Orbital symmetries:
       Occupied  (A) (A) (A) (A) (A) (A) (A) (A) (A) (A) (A) (A)
                 (A) (A) (A) (A) (A) (A) (A) (A) (A) (A) (A) (A)
                 (A) (A) (A) (A) (A) (A) (A) (A) (A) (A) (A) (A)
                 (A) (A) (A) (A) (A) (A) (A) (A)
       Virtual   (A) (A) (A) (A) (A) (A) (A) (A) (A) (A) (A) (A)
                 (A) (A) (A) (A) (A) (A) (A) (A) (A) (A) (A) (A)
                 (A) (A) (A) (A) (A) (A) (A) (A) (A) (A) (A) (A)
                 (A) (A) (A) (A) (A) (A) (A) (A) (A) (A) (A) (A)
                 (A) (A) (A) (A) (A) (A) (A) (A) (A) (A) (A) (A)
                 (A) (A) (A) (A) (A) (A) (A) (A) (A) (A) (A) (A)
                 (A) (A) (A) (A) (A) (A) (A) (A) (A) (A) (A) (A)
                 (A) (A) (A) (A) (A) (A) (A) (A) (A) (A) (A) (A)
                 (A) (A) (A) (A) (A) (A) (A) (A) (A) (A) (A) (A)
                 (A) (A) (A) (A) (A) (A) (A) (A) (A) (A) (A) (A)
                 (A) (A) (A) (A) (A) (A) (A) (A) (A) (A) (A) (A)
                 (A) (A) (A) (A) (A) (A) (A) (A) (A) (A) (A) (A)
                 (A) (A) (A) (A) (A) (A) (A) (A) (A) (A) (A) (A)
                 (A) (A)
 The electronic state is 1-A.
 Alpha  occ. eigenvalues --  -19.20074 -19.14353 -14.31786 -10.32195 -10.23376
 Alpha  occ. eigenvalues --  -10.19756 -10.19164 -10.19079 -10.18991 -10.18983
 Alpha  occ. eigenvalues --  -10.18850 -10.18795  -1.10878  -1.01833  -0.89534
 Alpha  occ. eigenvalues --   -0.85342  -0.77715  -0.74388  -0.72661  -0.67101
 Alpha  occ. eigenvalues --   -0.60644  -0.59784  -0.56783  -0.51521  -0.50483
 Alpha  occ. eigenvalues --   -0.49348  -0.48584  -0.45997  -0.45261  -0.44903
 Alpha  occ. eigenvalues --   -0.42159  -0.41734  -0.41186  -0.39034  -0.38391
 Alpha  occ. eigenvalues --   -0.36919  -0.35221  -0.33825  -0.33704  -0.32230
 Alpha  occ. eigenvalues --   -0.28248  -0.25089  -0.24516  -0.23877
 Alpha virt. eigenvalues --   -0.00512  -0.00053   0.00662   0.06951   0.09158
 Alpha virt. eigenvalues --    0.10629   0.12265   0.13006   0.14558   0.15995
 Alpha virt. eigenvalues --    0.16281   0.16580   0.18639   0.19186   0.19999
 Alpha virt. eigenvalues --    0.22386   0.22660   0.25215   0.26386   0.30512
 Alpha virt. eigenvalues --    0.31622   0.33137   0.33691   0.35012   0.38537
 Alpha virt. eigenvalues --    0.46087   0.52223   0.52712   0.54376   0.55036
 Alpha virt. eigenvalues --    0.55362   0.55943   0.57797   0.58774   0.59498
 Alpha virt. eigenvalues --    0.59678   0.60815   0.61319   0.61807   0.62011
 Alpha virt. eigenvalues --    0.64730   0.65639   0.66564   0.69828   0.70906
 Alpha virt. eigenvalues --    0.71673   0.72241   0.76671   0.78149   0.80385
 Alpha virt. eigenvalues --    0.82030   0.82697   0.83472   0.83929   0.84017
 Alpha virt. eigenvalues --    0.85852   0.88646   0.89202   0.90309   0.90737
 Alpha virt. eigenvalues --    0.91593   0.92719   0.94470   0.94814   0.96527
 Alpha virt. eigenvalues --    0.97977   0.99917   1.01113   1.03108   1.07138
 Alpha virt. eigenvalues --    1.09733   1.11623   1.12410   1.13334   1.17018
 Alpha virt. eigenvalues --    1.17729   1.20868   1.25899   1.26664   1.30569
 Alpha virt. eigenvalues --    1.38397   1.39959   1.43298   1.43716   1.45120
 Alpha virt. eigenvalues --    1.48292   1.49079   1.51001   1.51480   1.55632
 Alpha virt. eigenvalues --    1.57614   1.62075   1.65595   1.68706   1.74174
 Alpha virt. eigenvalues --    1.75727   1.78031   1.80044   1.80663   1.81363
 Alpha virt. eigenvalues --    1.83296   1.87153   1.89072   1.90470   1.92591
 Alpha virt. eigenvalues --    1.94883   1.95929   1.97588   1.99308   2.00452
 Alpha virt. eigenvalues --    2.05188   2.05813   2.07333   2.14057   2.14296
 Alpha virt. eigenvalues --    2.14696   2.16411   2.21088   2.22473   2.26731
 Alpha virt. eigenvalues --    2.28434   2.31088   2.34516   2.36870   2.37687
 Alpha virt. eigenvalues --    2.40624   2.44042   2.52286   2.53819   2.57791
 Alpha virt. eigenvalues --    2.58360   2.61512   2.63433   2.65812   2.67778
 Alpha virt. eigenvalues --    2.72304   2.74510   2.74944   2.77196   2.79594
 Alpha virt. eigenvalues --    2.84999   2.92779   2.98878   3.05156   3.11944
 Alpha virt. eigenvalues --    3.40759   3.79861   3.84159   4.09043   4.11738
 Alpha virt. eigenvalues --    4.12263   4.15345   4.25805   4.33156   4.39374
 Alpha virt. eigenvalues --    4.43280   4.61663   4.70153
          Condensed to atoms (all electrons):
               1          2          3          4          5          6
     1  C    5.133868   0.348563   0.282282  -0.031893  -0.026476   0.296206
     2  H    0.348563   0.638439  -0.043981  -0.004187  -0.003349  -0.038329
     3  N    0.282282  -0.043981   6.986044   0.300677   0.302818  -0.039428
     4  H   -0.031893  -0.004187   0.300677   0.439528  -0.028161   0.005332
     5  H   -0.026476  -0.003349   0.302818  -0.028161   0.432786  -0.009789
     6  C    0.296206  -0.038329  -0.039428   0.005332  -0.009789   4.357686
     7  O   -0.080395   0.001272   0.001146  -0.000090   0.000088   0.572342
     8  O   -0.094717  -0.000121  -0.001308   0.000052   0.010834   0.283025
     9  H    0.011008  -0.000559  -0.000374   0.000033  -0.000287  -0.007365
    10  C    0.336815  -0.052678  -0.061555  -0.007462   0.006316  -0.028971
    11  H   -0.035036   0.001215   0.004642   0.000047  -0.000229  -0.004155
    12  H   -0.034499   0.006410   0.002628  -0.000485  -0.000057  -0.005568
    13  C   -0.034545  -0.006356  -0.005170   0.010494   0.000045   0.004738
    14  C   -0.003342   0.000442   0.000352   0.004166  -0.000021  -0.000131
    15  C   -0.003554   0.004431  -0.000740   0.000706  -0.000032   0.000167
    16  C   -0.000144  -0.000004  -0.000035   0.000061   0.000001   0.000001
    17  H    0.000147   0.000030   0.000393  -0.000033  -0.000003  -0.000018
    18  C    0.000100  -0.000145  -0.000004  -0.000104  -0.000001   0.000002
    19  H    0.000385   0.003502   0.000015  -0.000034  -0.000003  -0.000149
    20  C    0.000016   0.000002   0.000010  -0.000085  -0.000000  -0.000000
    21  H    0.000000   0.000000  -0.000001  -0.000001   0.000000  -0.000000
    22  H   -0.000001   0.000004   0.000000  -0.000000   0.000000  -0.000000
    23  H    0.000000  -0.000000  -0.000000  -0.000000  -0.000000   0.000000
               7          8          9         10         11         12
     1  C   -0.080395  -0.094717   0.011008   0.336815  -0.035036  -0.034499
     2  H    0.001272  -0.000121  -0.000559  -0.052678   0.001215   0.006410
     3  N    0.001146  -0.001308  -0.000374  -0.061555   0.004642   0.002628
     4  H   -0.000090   0.000052   0.000033  -0.007462   0.000047  -0.000485
     5  H    0.000088   0.010834  -0.000287   0.006316  -0.000229  -0.000057
     6  C    0.572342   0.283025  -0.007365  -0.028971  -0.004155  -0.005568
     7  O    8.028939  -0.084044   0.011623   0.002624   0.007566   0.002279
     8  O   -0.084044   8.246857   0.216683   0.002622   0.000161  -0.000006
     9  H    0.011623   0.216683   0.358396  -0.000260  -0.000018  -0.000017
    10  C    0.002624   0.002622  -0.000260   5.210156   0.353426   0.355967
    11  H    0.007566   0.000161  -0.000018   0.353426   0.560022  -0.027093
    12  H    0.002279  -0.000006  -0.000017   0.355967  -0.027093   0.562078
    13  C    0.000686  -0.000016   0.000001   0.334709  -0.030486  -0.032242
    14  C   -0.000006  -0.000000   0.000000  -0.046142   0.002375  -0.004769
    15  C    0.000000  -0.000002   0.000000  -0.064011  -0.004959   0.004707
    16  C   -0.000000  -0.000000   0.000000   0.006714  -0.000195   0.000221
    17  H    0.000001   0.000000  -0.000000  -0.010051   0.000050   0.007137
    18  C   -0.000000  -0.000000   0.000000   0.005990   0.000066  -0.000173
    19  H    0.000004   0.000001  -0.000000  -0.008230   0.002987   0.000050
    20  C    0.000000   0.000000  -0.000000   0.000378   0.000020   0.000005
    21  H   -0.000000   0.000000  -0.000000  -0.000173   0.000003  -0.000009
    22  H   -0.000000   0.000000  -0.000000  -0.000175  -0.000004   0.000003
    23  H    0.000000  -0.000000  -0.000000   0.000007  -0.000000  -0.000000
              13         14         15         16         17         18
     1  C   -0.034545  -0.003342  -0.003554  -0.000144   0.000147   0.000100
     2  H   -0.006356   0.000442   0.004431  -0.000004   0.000030  -0.000145
     3  N   -0.005170   0.000352  -0.000740  -0.000035   0.000393  -0.000004
     4  H    0.010494   0.004166   0.000706   0.000061  -0.000033  -0.000104
     5  H    0.000045  -0.000021  -0.000032   0.000001  -0.000003  -0.000001
     6  C    0.004738  -0.000131   0.000167   0.000001  -0.000018   0.000002
     7  O    0.000686  -0.000006   0.000000  -0.000000   0.000001  -0.000000
     8  O   -0.000016  -0.000000  -0.000002  -0.000000   0.000000  -0.000000
     9  H    0.000001   0.000000   0.000000   0.000000  -0.000000   0.000000
    10  C    0.334709  -0.046142  -0.064011   0.006714  -0.010051   0.005990
    11  H   -0.030486   0.002375  -0.004959  -0.000195   0.000050   0.000066
    12  H   -0.032242  -0.004769   0.004707   0.000221   0.007137  -0.000173
    13  C    4.681764   0.550378   0.533624  -0.022281  -0.040918  -0.017213
    14  C    0.550378   4.966172  -0.044633   0.516841   0.354492  -0.045627
    15  C    0.533624  -0.044633   4.984899  -0.046521   0.006418   0.527011
    16  C   -0.022281   0.516841  -0.046521   4.875466  -0.046346  -0.026768
    17  H   -0.040918   0.354492   0.006418  -0.046346   0.594446   0.000343
    18  C   -0.017213  -0.045627   0.527011  -0.026768   0.000343   4.863202
    19  H   -0.047659   0.006076   0.354127   0.000371  -0.000178  -0.044589
    20  C   -0.034485  -0.035815  -0.035776   0.552000   0.004722   0.547871
    21  H    0.003775  -0.039112   0.000809   0.356807  -0.005487   0.004597
    22  H    0.003623   0.000819  -0.040023   0.004601   0.000017   0.357062
    23  H    0.000678   0.004642   0.004742  -0.043123  -0.000174  -0.043001
              19         20         21         22         23
     1  C    0.000385   0.000016   0.000000  -0.000001   0.000000
     2  H    0.003502   0.000002   0.000000   0.000004  -0.000000
     3  N    0.000015   0.000010  -0.000001   0.000000  -0.000000
     4  H   -0.000034  -0.000085  -0.000001  -0.000000  -0.000000
     5  H   -0.000003  -0.000000   0.000000   0.000000  -0.000000
     6  C   -0.000149  -0.000000  -0.000000  -0.000000   0.000000
     7  O    0.000004   0.000000  -0.000000  -0.000000   0.000000
     8  O    0.000001   0.000000   0.000000   0.000000  -0.000000
     9  H   -0.000000  -0.000000  -0.000000  -0.000000  -0.000000
    10  C   -0.008230   0.000378  -0.000173  -0.000175   0.000007
    11  H    0.002987   0.000020   0.000003  -0.000004  -0.000000
    12  H    0.000050   0.000005  -0.000009   0.000003  -0.000000
    13  C   -0.047659  -0.034485   0.003775   0.003623   0.000678
    14  C    0.006076  -0.035815  -0.039112   0.000819   0.004642
    15  C    0.354127  -0.035776   0.000809  -0.040023   0.004742
    16  C    0.000371   0.552000   0.356807   0.004601  -0.043123
    17  H   -0.000178   0.004722  -0.005487   0.000017  -0.000174
    18  C   -0.044589   0.547871   0.004597   0.357062  -0.043001
    19  H    0.609269   0.004809   0.000018  -0.005672  -0.000182
    20  C    0.004809   4.854615  -0.043399  -0.042958   0.359071
    21  H    0.000018  -0.043399   0.596698  -0.000188  -0.005593
    22  H   -0.005672  -0.042958  -0.000188   0.598229  -0.005494
    23  H   -0.000182   0.359071  -0.005593  -0.005494   0.598603
 Mulliken charges:
               1
     1  C   -0.064789
     2  H    0.145397
     3  N   -0.728410
     4  H    0.311439
     5  H    0.315518
     6  C    0.614403
     7  O   -0.464035
     8  O   -0.580021
     9  H    0.411137
    10  C   -0.336015
    11  H    0.169596
    12  H    0.163433
    13  C    0.146857
    14  C   -0.187158
    15  C   -0.181391
    16  C   -0.127669
    17  H    0.135011
    18  C   -0.128621
    19  H    0.125081
    20  C   -0.131003
    21  H    0.131256
    22  H    0.130156
    23  H    0.129826
 Sum of Mulliken charges =  -0.00000
 Mulliken charges with hydrogens summed into heavy atoms:
               1
     1  C    0.080608
     3  N   -0.101453
     6  C    0.614403
     7  O   -0.464035
     8  O   -0.168884
    10  C   -0.002986
    13  C    0.146857
    14  C   -0.052147
    15  C   -0.056310
    16  C    0.003587
    18  C    0.001536
    20  C   -0.001177
 Electronic spatial extent (au):  <R**2>=           2647.7222
 Charge=             -0.0000 electrons
 Dipole moment (field-independent basis, Debye):
    X=              0.4994    Y=             -0.0582    Z=             -2.1980  Tot=              2.2547
 Quadrupole moment (field-independent basis, Debye-Ang):
   XX=            -61.1961   YY=            -69.9494   ZZ=            -71.1595
   XY=              0.4966   XZ=              4.1412   YZ=              3.0527
 Traceless Quadrupole moment (field-independent basis, Debye-Ang):
   XX=              6.2389   YY=             -2.5144   ZZ=             -3.7245
   XY=              0.4966   XZ=              4.1412   YZ=              3.0527
 Octapole moment (field-independent basis, Debye-Ang**2):
  XXX=            -63.3005  YYY=             -4.9426  ZZZ=             -7.3571  XYY=             -0.2633
  XXY=              9.3498  XXZ=            -25.9172  XZZ=             -6.5596  YZZ=              7.3248
  YYZ=             -4.8280  XYZ=              1.8306
 Hexadecapole moment (field-independent basis, Debye-Ang**3):
 XXXX=          -2238.9777 YYYY=           -380.9310 ZZZZ=           -298.0736 XXXY=              1.7579
 XXXZ=             40.3741 YYYX=             14.0765 YYYZ=              0.7898 ZZZX=             13.3721
 ZZZY=             -9.8748 XXYY=           -516.8383 XXZZ=           -545.3284 YYZZ=           -100.6361
 XXYZ=             40.2607 YYXZ=              6.6233 ZZXY=            -13.1109
 N-N= 6.654775443223D+02 E-N=-2.622875396076D+03  KE= 5.496256307088D+02
 Unable to Open any file for archive entry.
 1\1\GINC-CCC095\SP\RB3LYP TD-FC\6-31G(d)\C9H11N1O2\ROOT\21-Feb-2025\0\
 \# td=(nstat=3) b3lyp/6-31g(d)\\phe | No.3\\0,1\C,0,-1.38127,0.012619,
 -0.325151\H,0,-1.176569,-0.767905,-1.085203\N,0,-1.253511,1.376377,-0.
 846931\H,0,-0.297649,1.51337,-1.17143\H,0,-1.866795,1.499057,-1.649452
 \C,0,-2.823428,-0.228381,0.110414\O,0,-3.182669,-0.763482,1.134324\O,0
 ,-3.701397,0.195115,-0.8347\H,0,-4.591255,-0.000833,-0.48546\C,0,-0.41
 565,-0.200784,0.853792\H,0,-0.646168,-1.16873,1.311292\H,0,-0.623549,0
 .567378,1.605219\C,0,1.039431,-0.148159,0.43398\C,0,1.861272,0.921711,
 0.812269\C,0,1.602536,-1.177744,-0.336278\C,0,3.203165,0.968978,0.4269
 73\H,0,1.443256,1.724519,1.414927\C,0,2.941154,-1.134195,-0.72445\H,0,
 0.987657,-2.027593,-0.626169\C,0,3.74717,-0.058361,-0.34401\H,0,3.8225
 88,1.808037,0.733191\H,0,3.357779,-1.943972,-1.317992\H,0,4.791525,-0.
 025133,-0.642627\\Version=ES64L-G16RevC.02\State=1-A\HF=-554.786239\RM
 SD=5.141e-09\PG=C01 [X(C9H11N1O2)]\\@
 The archive entry for this job was punched.


 IF AT FIRST YOU DON'T SUCCEED, TRY LOOKING IN 
 THE WASTEBASKET FOR THE DIRECTIONS.
 Job cpu time:       0 days  0 hours  8 minutes 50.2 seconds.
 Elapsed time:       0 days  0 hours  1 minutes 14.6 seconds.
 File lengths (MBytes):  RWF=    272 Int=      0 D2E=      0 Chk=      8 Scr=      1
 Normal termination of Gaussian 16 at Fri Feb 21 15:15:36 2025.
