 Entering Gaussian System, Link 0=/apl/gaussian/16c02/g16/._.g16
 Initial command:
 /apl/gaussian/16c02/g16/l1.exe "/lwork/users/ux8/8287072.ccpbs1/gaussian/Gau-526248.inp" -scrdir="/lwork/users/ux8/8287072.ccpbs1/gaussian/"
 Default CPUs for threads: 96,97,98,99,100,101,102,103
 Default is to use a total of   8 processors:
                                8 via shared-memory
                                1 via Linda
 Entering Link 1 = /apl/gaussian/16c02/g16/l1.exe PID=    526284.
  
 Copyright (c) 1988-2021, Gaussian, Inc.  All Rights Reserved.
  
 This is part of the Gaussian(R) 16 program.  It is based on
 the Gaussian(R) 09 system (copyright 2009, Gaussian, Inc.),
 the Gaussian(R) 03 system (copyright 2003, Gaussian, Inc.),
 the Gaussian(R) 98 system (copyright 1998, Gaussian, Inc.),
 the Gaussian(R) 94 system (copyright 1995, Gaussian, Inc.),
 the Gaussian 92(TM) system (copyright 1992, Gaussian, Inc.),
 the Gaussian 90(TM) system (copyright 1990, Gaussian, Inc.),
 the Gaussian 88(TM) system (copyright 1988, Gaussian, Inc.),
 the Gaussian 86(TM) system (copyright 1986, Carnegie Mellon
 University), and the Gaussian 82(TM) system (copyright 1983,
 Carnegie Mellon University). Gaussian is a federally registered
 trademark of Gaussian, Inc.
  
 This software contains proprietary and confidential information,
 including trade secrets, belonging to Gaussian, Inc.
  
 This software is provided under written license and may be
 used, copied, transmitted, or stored only in accord with that
 written license.
  
 The following legend is applicable only to US Government
 contracts under FAR:
  
                    RESTRICTED RIGHTS LEGEND
  
 Use, reproduction and disclosure by the US Government is
 subject to restrictions as set forth in subparagraphs (a)
 and (c) of the Commercial Computer Software - Restricted
 Rights clause in FAR 52.227-19.
  
 Gaussian, Inc.
 340 Quinnipiac St., Bldg. 40, Wallingford CT 06492
  
  
 ---------------------------------------------------------------
 Warning -- This program may not be used in any manner that
 competes with the business of Gaussian, Inc. or will provide
 assistance to any competitor of Gaussian, Inc.  The licensee
 of this program is prohibited from giving any competitor of
 Gaussian, Inc. access to this program.  By using this program,
 the user acknowledges that Gaussian, Inc. is engaged in the
 business of creating and licensing software in the field of
 computational chemistry and represents and warrants to the
 licensee that it is not a competitor of Gaussian, Inc. and that
 it will not use this program in any manner prohibited above.
 ---------------------------------------------------------------
  

 Cite this work as:
 Gaussian 16, Revision C.02,
 M. J. Frisch, G. W. Trucks, H. B. Schlegel, G. E. Scuseria, 
 M. A. Robb, J. R. Cheeseman, G. Scalmani, V. Barone, 
 G. A. Petersson, H. Nakatsuji, X. Li, M. Caricato, A. V. Marenich, 
 J. Bloino, B. G. Janesko, R. Gomperts, B. Mennucci, H. P. Hratchian, 
 J. V. Ortiz, A. F. Izmaylov, J. L. Sonnenberg, D. Williams-Young, 
 F. Ding, F. Lipparini, F. Egidi, J. Goings, B. Peng, A. Petrone, 
 T. Henderson, D. Ranasinghe, V. G. Zakrzewski, J. Gao, N. Rega, 
 G. Zheng, W. Liang, M. Hada, M. Ehara, K. Toyota, R. Fukuda, 
 J. Hasegawa, M. Ishida, T. Nakajima, Y. Honda, O. Kitao, H. Nakai, 
 T. Vreven, K. Throssell, J. A. Montgomery, Jr., J. E. Peralta, 
 F. Ogliaro, M. J. Bearpark, J. J. Heyd, E. N. Brothers, K. N. Kudin, 
 V. N. Staroverov, T. A. Keith, R. Kobayashi, J. Normand, 
 K. Raghavachari, A. P. Rendell, J. C. Burant, S. S. Iyengar, 
 J. Tomasi, M. Cossi, J. M. Millam, M. Klene, C. Adamo, R. Cammi, 
 J. W. Ochterski, R. L. Martin, K. Morokuma, O. Farkas, 
 J. B. Foresman, and D. J. Fox, Gaussian, Inc., Wallingford CT, 2019.
 
 ******************************************
 Gaussian 16:  ES64L-G16RevC.02  7-Dec-2021
                21-Feb-2025 
 ******************************************
 %chk=phe.013.tddft.chk
 %mem=9600MB
 SetSPE:  set environment variable "OMP_PROC_BIND" = "true"
 SetSPE:  set environment variable "OMP_PLACES" = "{96},{97},{98},{99},{100},{101},{102},{103}"
 -----------------------------
 # td=(nstat=3) b3lyp/6-31g(d)
 -----------------------------
 1/38=1,172=1/1;
 2/12=2,17=6,18=5,40=1/2;
 3/5=1,6=6,7=1,11=9,25=1,30=1,74=-5/1,2,3,8;
 4//1;
 5/5=2,38=5/2;
 8/6=1,10=2,108=3/1;
 9/41=3,42=1,70=2/14;
 6/7=2,8=2,9=2,10=2/1;
 99/5=1,9=1/99;
 -----------
 phe | No.13
 -----------
 Symbolic Z-matrix:
 Charge =  0 Multiplicity = 1
 C                    -1.43021  -0.36351   0.01354 
 H                    -1.07563  -0.64769   1.02291 
 N                    -1.73584  -1.51787  -0.84587 
 H                    -0.88024  -2.02243  -1.06446 
 H                    -2.35695  -2.16168  -0.36106 
 C                    -2.7321    0.40163   0.25794 
 O                    -2.89169   1.59895   0.19067 
 O                    -3.7287   -0.44293   0.62498 
 H                    -4.51727   0.11336   0.76834 
 C                    -0.37075   0.5412   -0.63608 
 H                    -0.59882   1.57807  -0.37302 
 H                    -0.5074    0.46806  -1.7243 
 C                     1.07338   0.24709  -0.26493 
 C                     1.99959   1.30075  -0.25232 
 C                     1.53584  -1.03326   0.07004 
 C                     3.3404    1.08355   0.06274 
 H                     1.66083   2.30595  -0.49348 
 C                     2.87636  -1.25643   0.39208 
 H                     0.84727  -1.87424   0.09413 
 C                     3.78593  -0.19941   0.38633 
 H                     4.03548   1.91925   0.06473 
 H                     3.20687  -2.2595    0.64948 
 H                     4.82919  -0.37184   0.63659 
 
                          Input orientation:                          
 ---------------------------------------------------------------------
 Center     Atomic      Atomic             Coordinates (Angstroms)
 Number     Number       Type             X           Y           Z
 ---------------------------------------------------------------------
      1          6           0       -1.430207   -0.363509    0.013537
      2          1           0       -1.075630   -0.647690    1.022912
      3          7           0       -1.735837   -1.517872   -0.845873
      4          1           0       -0.880243   -2.022429   -1.064458
      5          1           0       -2.356953   -2.161679   -0.361058
      6          6           0       -2.732099    0.401626    0.257944
      7          8           0       -2.891685    1.598950    0.190673
      8          8           0       -3.728700   -0.442928    0.624978
      9          1           0       -4.517272    0.113362    0.768338
     10          6           0       -0.370747    0.541202   -0.636078
     11          1           0       -0.598823    1.578068   -0.373015
     12          1           0       -0.507404    0.468055   -1.724295
     13          6           0        1.073377    0.247086   -0.264934
     14          6           0        1.999590    1.300749   -0.252323
     15          6           0        1.535843   -1.033255    0.070043
     16          6           0        3.340396    1.083550    0.062741
     17          1           0        1.660830    2.305945   -0.493480
     18          6           0        2.876358   -1.256431    0.392079
     19          1           0        0.847269   -1.874244    0.094126
     20          6           0        3.785927   -0.199413    0.386330
     21          1           0        4.035481    1.919251    0.064728
     22          1           0        3.206873   -2.259497    0.649481
     23          1           0        4.829187   -0.371835    0.636591
 ---------------------------------------------------------------------
                    Distance matrix (angstroms):
                    1          2          3          4          5
     1  C    0.000000
     2  H    1.106942   0.000000
     3  N    1.471241   2.164589   0.000000
     4  H    2.053424   2.507030   1.017054   0.000000
     5  H    2.057327   2.418538   1.017506   1.641595   0.000000
     6  C    1.529735   2.104787   2.428049   3.324780   2.663537
     7  O    2.453271   3.006338   3.482096   4.328468   3.838317
     8  O    2.379756   2.690550   2.700076   3.669159   2.409992
     9  H    3.213581   3.533965   3.605965   4.598774   3.334415
    10  C    1.537191   2.159299   2.479369   2.648641   3.365444
    11  H    2.147171   2.670198   3.331852   3.677073   4.132417
    12  H    2.136147   3.019092   2.494911   2.603249   3.492098
    13  C    2.591969   2.660339   3.368123   3.099446   4.192678
    14  C    3.821511   3.857411   4.717027   4.471746   5.565941
    15  C    3.041251   2.806494   3.431857   2.846582   4.075911
    16  C    4.985484   4.839463   5.775908   5.360175   6.570457
    17  H    4.115527   4.302513   5.126705   5.051523   6.009973
    18  C    4.414420   4.048052   4.782595   4.101256   5.364162
    19  H    2.734175   2.462645   2.771829   2.085323   3.249131
    20  C    5.232013   4.923507   5.809177   5.215488   6.491845
    21  H    5.923458   5.799203   6.778726   6.401269   7.595953
    22  H    5.049921   4.590992   5.216941   4.438277   5.655698
    23  H    6.290332   5.923867   6.827199   6.181878   7.472580
                    6          7          8          9         10
     6  C    0.000000
     7  O    1.209784   0.000000
     8  O    1.356908   2.249107   0.000000
     9  H    1.878947   2.276665   0.975631   0.000000
    10  C    2.528782   2.856130   3.719492   4.398761   0.000000
    11  H    2.516544   2.361228   3.857012   4.336161   1.093760
    12  H    2.980428   3.260494   4.089709   4.734772   1.099201
    13  C    3.844338   4.213885   4.932343   5.686905   1.519785
    14  C    4.843312   4.920339   6.051725   6.702323   2.518467
    15  C    4.506608   5.152287   5.326523   6.200205   2.571499
    16  C    6.113781   6.254665   7.253852   7.948716   3.815111
    17  H    4.846534   4.657607   6.152584   6.675968   2.694802
    18  C    5.849952   6.439261   6.659040   7.528856   3.851270
    19  H    4.244796   5.104133   4.823895   5.760507   2.801989
    20  C    6.546938   6.918301   7.522358   8.317865   4.344165
    21  H    6.938347   6.935711   8.134880   8.769600   4.669582
    22  H    6.519683   7.231219   7.169567   8.081275   4.721858
    23  H    7.610168   7.980896   8.558190   9.359972   5.430712
                   11         12         13         14         15
    11  H    0.000000
    12  H    1.751126   0.000000
    13  C    2.139964   2.162737   0.000000
    14  C    2.615955   3.024087   1.402938   0.000000
    15  C    3.401780   3.106194   1.401912   2.401365   0.000000
    16  C    3.993980   4.286945   2.438528   1.394346   2.781605
    17  H    2.377046   3.097416   2.153192   1.087812   3.388722
    18  C    4.549356   4.347728   2.437821   2.779055   1.396601
    19  H    3.771984   3.260086   2.163352   3.395357   1.087187
    20  C    4.791876   4.830418   2.825143   2.418546   2.420374
    21  H    4.667419   5.093562   3.417437   2.151260   3.868528
    22  H    5.500520   5.183648   3.416273   3.866023   2.152152
    23  H    5.855315   5.895626   3.911767   3.405044   3.406548
                   16         17         18         19         20
    16  C    0.000000
    17  H    2.150482   0.000000
    18  C    2.408175   3.866813   0.000000
    19  H    3.868490   4.298970   2.141885   0.000000
    20  C    1.396138   3.401018   1.394502   3.395019   0.000000
    21  H    1.086988   2.469837   3.396422   4.955418   2.157416
    22  H    3.396771   4.953773   1.087031   2.454500   2.156038
    23  H    2.159618   4.299541   2.157739   4.290358   1.086624
                   21         22         23
    21  H    0.000000
    22  H    4.300054   0.000000
    23  H    2.491199   2.489043   0.000000
 Stoichiometry    C9H11NO2
 Framework group  C1[X(C9H11NO2)]
 Deg. of freedom    63
 Full point group                 C1      NOp   1
 Largest Abelian subgroup         C1      NOp   1
 Largest concise Abelian subgroup C1      NOp   1
                         Standard orientation:                         
 ---------------------------------------------------------------------
 Center     Atomic      Atomic             Coordinates (Angstroms)
 Number     Number       Type             X           Y           Z
 ---------------------------------------------------------------------
      1          6           0       -1.430207    0.363509   -0.013537
      2          1           0       -1.075630    0.647690   -1.022912
      3          7           0       -1.735837    1.517872    0.845873
      4          1           0       -0.880243    2.022429    1.064458
      5          1           0       -2.356953    2.161679    0.361058
      6          6           0       -2.732099   -0.401626   -0.257944
      7          8           0       -2.891685   -1.598950   -0.190673
      8          8           0       -3.728700    0.442928   -0.624978
      9          1           0       -4.517272   -0.113362   -0.768338
     10          6           0       -0.370747   -0.541202    0.636078
     11          1           0       -0.598823   -1.578068    0.373015
     12          1           0       -0.507404   -0.468055    1.724295
     13          6           0        1.073377   -0.247086    0.264934
     14          6           0        1.999590   -1.300749    0.252323
     15          6           0        1.535843    1.033255   -0.070043
     16          6           0        3.340396   -1.083550   -0.062741
     17          1           0        1.660830   -2.305945    0.493480
     18          6           0        2.876358    1.256431   -0.392079
     19          1           0        0.847269    1.874244   -0.094126
     20          6           0        3.785927    0.199413   -0.386330
     21          1           0        4.035481   -1.919251   -0.064728
     22          1           0        3.206873    2.259497   -0.649481
     23          1           0        4.829187    0.371835   -0.636591
 ---------------------------------------------------------------------
 Rotational constants (GHZ):           2.3454472           0.4485111           0.3972076
 Standard basis: 6-31G(d) (6D, 7F)
 There are   202 symmetry adapted cartesian basis functions of A   symmetry.
 There are   202 symmetry adapted basis functions of A   symmetry.
   202 basis functions,   380 primitive gaussians,   202 cartesian basis functions
    44 alpha electrons       44 beta electrons
       nuclear repulsion energy       662.5917142970 Hartrees.
 NAtoms=   23 NActive=   23 NUniq=   23 SFac= 1.00D+00 NAtFMM=   60 NAOKFM=F Big=F
 Integral buffers will be    131072 words long.
 Regular integral format.
 Two-electron integral symmetry is turned on.
 One-electron integrals computed using PRISM.
 NBasis=   202 RedAO= T EigKep=  4.63D-04  NBF=   202
 NBsUse=   202 1.00D-06 EigRej= -1.00D+00 NBFU=   202
 ExpMin= 1.61D-01 ExpMax= 5.48D+03 ExpMxC= 8.25D+02 IAcc=3 IRadAn=         5 AccDes= 0.00D+00
 Harris functional with IExCor=  402 and IRadAn=       5 diagonalized for initial guess.
 HarFok:  IExCor=  402 AccDes= 0.00D+00 IRadAn=         5 IDoV= 1 UseB2=F ITyADJ=14
 ICtDFT=  3500011 ScaDFX=  1.000000  1.000000  1.000000  1.000000
 FoFCou: FMM=F IPFlag=           0 FMFlag=      100000 FMFlg1=           0
         NFxFlg=           0 DoJE=T BraDBF=F KetDBF=T FulRan=T
         wScrn=  0.000000 ICntrl=       500 IOpCl=  0 I1Cent=   200000004 NGrid=           0
         NMat0=    1 NMatS0=      1 NMatT0=    0 NMatD0=    1 NMtDS0=    0 NMtDT0=    0
 Petite list used in FoFCou.
 Requested convergence on RMS density matrix=1.00D-08 within 128 cycles.
 Requested convergence on MAX density matrix=1.00D-06.
 Requested convergence on             energy=1.00D-06.
 No special actions if energy rises.
 Integral accuracy reduced to 1.0D-05 until final iterations.
 Initial convergence to 1.0D-05 achieved.  Increase integral accuracy.
 SCF Done:  E(RB3LYP) =  -554.781059573     A.U. after   14 cycles
            NFock= 14  Conv=0.41D-08     -V/T= 2.0094
 DoSCS=F DFT=T ScalE2(SS,OS)=  1.000000  1.000000
 ExpMin= 1.61D-01 ExpMax= 5.48D+03 ExpMxC= 8.25D+02 IAcc=3 IRadAn=         5 AccDes= 0.00D+00
 HarFok:  IExCor=  205 AccDes= 0.00D+00 IRadAn=         5 IDoV=-2 UseB2=F ITyADJ=14
 ICtDFT= 12500011 ScaDFX=  1.000000  1.000000  1.000000  1.000000
 Range of M.O.s used for correlation:    13   202
 NBasis=   202 NAE=    44 NBE=    44 NFC=    12 NFV=     0
 NROrb=    190 NOA=    32 NOB=    32 NVA=   158 NVB=   158
 Keep R1, R2, and R3 ints in memory in canonical form, NReq=656629584.
 Orbital symmetries:
       Occupied  (A) (A) (A) (A) (A) (A) (A) (A) (A) (A) (A) (A)
                 (A) (A) (A) (A) (A) (A) (A) (A) (A) (A) (A) (A)
                 (A) (A) (A) (A) (A) (A) (A) (A) (A) (A) (A) (A)
                 (A) (A) (A) (A) (A) (A) (A) (A)
       Virtual   (A) (A) (A) (A) (A) (A) (A) (A) (A) (A) (A) (A)
                 (A) (A) (A) (A) (A) (A) (A) (A) (A) (A) (A) (A)
                 (A) (A) (A) (A) (A) (A) (A) (A) (A) (A) (A) (A)
                 (A) (A) (A) (A) (A) (A) (A) (A) (A) (A) (A) (A)
                 (A) (A) (A) (A) (A) (A) (A) (A) (A) (A) (A) (A)
                 (A) (A) (A) (A) (A) (A) (A) (A) (A) (A) (A) (A)
                 (A) (A) (A) (A) (A) (A) (A) (A) (A) (A) (A) (A)
                 (A) (A) (A) (A) (A) (A) (A) (A) (A) (A) (A) (A)
                 (A) (A) (A) (A) (A) (A) (A) (A) (A) (A) (A) (A)
                 (A) (A) (A) (A) (A) (A) (A) (A) (A) (A) (A) (A)
                 (A) (A) (A) (A) (A) (A) (A) (A) (A) (A) (A) (A)
                 (A) (A) (A) (A) (A) (A) (A) (A) (A) (A) (A) (A)
                 (A) (A) (A) (A) (A) (A) (A) (A) (A) (A) (A) (A)
                 (A) (A)
    12 initial guesses have been made.
 Convergence on wavefunction:    0.001000000000000
 Iteration     1 Dimension    12 NMult     0 NNew     12
 CISAX will form    12 AO SS matrices at one time.
 New state      2 was old state      5
 Iteration     2 Dimension    18 NMult    12 NNew      6
 Iteration     3 Dimension    24 NMult    18 NNew      6
 Iteration     4 Dimension    30 NMult    24 NNew      6
 Iteration     5 Dimension    36 NMult    30 NNew      6
 Iteration     6 Dimension    38 NMult    36 NNew      2
 ***********************************************************************
 Excited states from <AA,BB:AA,BB> singles matrix:
 ***********************************************************************
 
 Ground to excited state transition densities written to RWF  633
 Ground to excited state transition electric dipole moments (Au):
       state          X           Y           Z        Dip. S.      Osc.
         1        -0.0747      0.1022     -0.0070      0.0161      0.0021
         2        -0.1166     -0.0302      0.0719      0.0197      0.0026
         3         0.0458      0.0458      0.0038      0.0042      0.0006
 Ground to excited state transition velocity dipole moments (Au):
       state          X           Y           Z        Dip. S.      Osc.
         1         0.0132     -0.0196     -0.0005      0.0006      0.0019
         2         0.0187      0.0087     -0.0178      0.0007      0.0024
         3        -0.0092     -0.0084     -0.0058      0.0002      0.0006
 Ground to excited state transition magnetic dipole moments (Au):
       state          X           Y           Z
         1        -0.0077      0.0033     -0.2679
         2         0.2200      0.3431      0.1444
         3        -0.1251     -0.1232     -0.3442
 Ground to excited state transition velocity quadrupole moments (Au):
       state          XX          YY          ZZ          XY          XZ          YZ
         1         0.0083     -0.0281      0.0284     -0.1424      0.0190     -0.0068
         2        -0.0228     -0.0727      0.0841     -0.0516     -0.0162     -0.0207
         3        -0.1102      0.0890     -0.0251     -0.1081      0.0580     -0.0176
 <0|del|b> * <b|rxdel|0> + <0|del|b> * <b|delr+rdel|0>
 Rotatory Strengths (R) in cgs (10**-40 erg-esu-cm/Gauss)
       state          XX          YY          ZZ    R(velocity)    E-M Angle
         1         0.8949     -0.2337     -0.7969     -0.0452       90.00
         2         2.5950      0.4153     12.8583      5.2896       67.36
         3         6.7458      4.3723      2.5176      4.5452       38.25
 1/2[<0|r|b>*<b|rxdel|0> + (<0|rxdel|b>*<b|r|0>)*]
 Rotatory Strengths (R) in cgs (10**-40 erg-esu-cm/Gauss)
       state          XX          YY          ZZ     R(length)
         1        -0.4056     -0.2351     -1.3299     -0.6568
         2        18.1384      7.3367     -7.3373      6.0459
         3         4.0546      3.9888      0.9312      2.9915
  1/2[<0|del|b>*<b|r|0> + (<0|r|b>*<b|del|0>)*] (Au)
       state          X           Y           Z        Dip. S.   Osc.(frdel)
         1        -0.0010     -0.0020      0.0000      0.0030      0.0020
         2        -0.0022     -0.0003     -0.0013      0.0037      0.0025
         3        -0.0004     -0.0004     -0.0000      0.0008      0.0006

 Excitation energies and oscillator strengths:
 
 Excited State   1:      Singlet-A      5.4026 eV  229.49 nm  f=0.0021  <S**2>=0.000
      42 -> 46        -0.33764
      42 -> 47        -0.12428
      43 -> 45        -0.15379
      43 -> 46        -0.28192
      44 -> 45         0.49916
 This state for optimization and/or second-order correction.
 Total Energy, E(TD-HF/TD-DFT) =  -554.582516303    
 Copying the excited state density for this state as the 1-particle RhoCI density.
 
 Excited State   2:      Singlet-A      5.4939 eV  225.68 nm  f=0.0026  <S**2>=0.000
      41 -> 47         0.23210
      42 -> 45        -0.11985
      42 -> 46         0.14519
      42 -> 47        -0.14942
      43 -> 45         0.24523
      43 -> 47         0.36314
      44 -> 46        -0.10618
      44 -> 47         0.40613
 
 Excited State   3:      Singlet-A      5.8939 eV  210.36 nm  f=0.0006  <S**2>=0.000
      42 -> 46        -0.11033
      43 -> 45         0.36605
      43 -> 46         0.27901
      44 -> 45         0.23210
      44 -> 46         0.46017
 SavETr:  write IOETrn=   770 NScale= 10 NData=  16 NLR=1 NState=    3 LETran=      64.

 **********************************************************************

            Population analysis using the SCF Density.

 **********************************************************************

 Orbital symmetries:
       Occupied  (A) (A) (A) (A) (A) (A) (A) (A) (A) (A) (A) (A)
                 (A) (A) (A) (A) (A) (A) (A) (A) (A) (A) (A) (A)
                 (A) (A) (A) (A) (A) (A) (A) (A) (A) (A) (A) (A)
                 (A) (A) (A) (A) (A) (A) (A) (A)
       Virtual   (A) (A) (A) (A) (A) (A) (A) (A) (A) (A) (A) (A)
                 (A) (A) (A) (A) (A) (A) (A) (A) (A) (A) (A) (A)
                 (A) (A) (A) (A) (A) (A) (A) (A) (A) (A) (A) (A)
                 (A) (A) (A) (A) (A) (A) (A) (A) (A) (A) (A) (A)
                 (A) (A) (A) (A) (A) (A) (A) (A) (A) (A) (A) (A)
                 (A) (A) (A) (A) (A) (A) (A) (A) (A) (A) (A) (A)
                 (A) (A) (A) (A) (A) (A) (A) (A) (A) (A) (A) (A)
                 (A) (A) (A) (A) (A) (A) (A) (A) (A) (A) (A) (A)
                 (A) (A) (A) (A) (A) (A) (A) (A) (A) (A) (A) (A)
                 (A) (A) (A) (A) (A) (A) (A) (A) (A) (A) (A) (A)
                 (A) (A) (A) (A) (A) (A) (A) (A) (A) (A) (A) (A)
                 (A) (A) (A) (A) (A) (A) (A) (A) (A) (A) (A) (A)
                 (A) (A) (A) (A) (A) (A) (A) (A) (A) (A) (A) (A)
                 (A) (A)
 The electronic state is 1-A.
 Alpha  occ. eigenvalues --  -19.20134 -19.14471 -14.32375 -10.32278 -10.23520
 Alpha  occ. eigenvalues --  -10.19871 -10.19080 -10.19005 -10.18945 -10.18813
 Alpha  occ. eigenvalues --  -10.18810 -10.18655  -1.10984  -1.01931  -0.89759
 Alpha  occ. eigenvalues --   -0.85285  -0.77756  -0.74307  -0.72714  -0.67210
 Alpha  occ. eigenvalues --   -0.60888  -0.59647  -0.56859  -0.51785  -0.50685
 Alpha  occ. eigenvalues --   -0.48923  -0.48784  -0.46637  -0.45078  -0.44425
 Alpha  occ. eigenvalues --   -0.42935  -0.41899  -0.41051  -0.39007  -0.38826
 Alpha  occ. eigenvalues --   -0.36718  -0.35043  -0.33808  -0.33577  -0.32339
 Alpha  occ. eigenvalues --   -0.28394  -0.25079  -0.24494  -0.23898
 Alpha virt. eigenvalues --   -0.00253   0.00024   0.00689   0.06487   0.08609
 Alpha virt. eigenvalues --    0.10597   0.12925   0.13095   0.13867   0.15306
 Alpha virt. eigenvalues --    0.15899   0.17045   0.18188   0.19117   0.21065
 Alpha virt. eigenvalues --    0.23188   0.24060   0.25775   0.26775   0.29866
 Alpha virt. eigenvalues --    0.31774   0.31911   0.34531   0.35611   0.39372
 Alpha virt. eigenvalues --    0.48227   0.50510   0.52389   0.53825   0.55195
 Alpha virt. eigenvalues --    0.56406   0.56694   0.57927   0.59241   0.59624
 Alpha virt. eigenvalues --    0.59820   0.61362   0.61895   0.62434   0.62757
 Alpha virt. eigenvalues --    0.64038   0.66315   0.67980   0.68724   0.70030
 Alpha virt. eigenvalues --    0.71579   0.72165   0.76232   0.77230   0.78323
 Alpha virt. eigenvalues --    0.80272   0.82839   0.83820   0.84153   0.85588
 Alpha virt. eigenvalues --    0.86439   0.88891   0.89133   0.90010   0.91542
 Alpha virt. eigenvalues --    0.91785   0.94213   0.95186   0.95870   0.96181
 Alpha virt. eigenvalues --    0.98423   1.00577   1.01248   1.04257   1.06882
 Alpha virt. eigenvalues --    1.08090   1.11488   1.13302   1.13883   1.15880
 Alpha virt. eigenvalues --    1.18747   1.20240   1.23373   1.26822   1.27413
 Alpha virt. eigenvalues --    1.36423   1.40795   1.43237   1.43992   1.45536
 Alpha virt. eigenvalues --    1.46315   1.48683   1.49485   1.51639   1.55265
 Alpha virt. eigenvalues --    1.59720   1.62892   1.66006   1.69601   1.74690
 Alpha virt. eigenvalues --    1.77144   1.77848   1.79676   1.81681   1.82779
 Alpha virt. eigenvalues --    1.84486   1.86040   1.89465   1.90404   1.90488
 Alpha virt. eigenvalues --    1.92788   1.94927   1.97793   1.97990   2.03359
 Alpha virt. eigenvalues --    2.05336   2.07583   2.10569   2.12124   2.14223
 Alpha virt. eigenvalues --    2.15112   2.15773   2.20126   2.20788   2.28310
 Alpha virt. eigenvalues --    2.29942   2.31109   2.32709   2.35974   2.36884
 Alpha virt. eigenvalues --    2.43606   2.44984   2.51831   2.53635   2.57933
 Alpha virt. eigenvalues --    2.58867   2.59511   2.62826   2.65669   2.67527
 Alpha virt. eigenvalues --    2.72525   2.74884   2.76298   2.78426   2.79335
 Alpha virt. eigenvalues --    2.86097   2.90857   2.98574   3.05892   3.12399
 Alpha virt. eigenvalues --    3.40946   3.79831   3.83149   4.08756   4.11599
 Alpha virt. eigenvalues --    4.12344   4.13084   4.27444   4.33168   4.34320
 Alpha virt. eigenvalues --    4.43937   4.59803   4.70257
          Condensed to atoms (all electrons):
               1          2          3          4          5          6
     1  C    5.111209   0.351449   0.282012  -0.037018  -0.024073   0.301825
     2  H    0.351449   0.630466  -0.046591  -0.003321  -0.003862  -0.036076
     3  N    0.282012  -0.046591   6.971263   0.310960   0.300254  -0.039946
     4  H   -0.037018  -0.003321   0.310960   0.435513  -0.029432   0.004860
     5  H   -0.024073  -0.003862   0.300254  -0.029432   0.434531  -0.009202
     6  C    0.301825  -0.036076  -0.039946   0.004860  -0.009202   4.352399
     7  O   -0.078286   0.001459   0.001013  -0.000087   0.000084   0.578607
     8  O   -0.093847  -0.000409  -0.001292   0.000120   0.010143   0.279185
     9  H    0.011022  -0.000542  -0.000459   0.000026  -0.000264  -0.007423
    10  C    0.335833  -0.058346  -0.050353  -0.003581   0.005634  -0.026797
    11  H   -0.041268   0.002816   0.004451  -0.000074  -0.000251  -0.004895
    12  H   -0.037131   0.006781   0.003854  -0.000698   0.000087  -0.002533
    13  C   -0.027997   0.001097  -0.003375  -0.000205   0.000055   0.003210
    14  C    0.002197   0.000377  -0.000061  -0.000061   0.000006  -0.000180
    15  C   -0.003850   0.004651  -0.003476   0.001791  -0.000224   0.000436
    16  C   -0.000133  -0.000016   0.000000  -0.000001  -0.000000   0.000000
    17  H    0.000146   0.000016  -0.000001  -0.000001   0.000000  -0.000014
    18  C   -0.000065  -0.000395   0.000144   0.000054  -0.000003   0.000000
    19  H    0.004902  -0.003137   0.004482   0.008603   0.000816   0.000118
    20  C    0.000010  -0.000021   0.000000   0.000003   0.000000   0.000000
    21  H    0.000001   0.000000  -0.000000   0.000000   0.000000  -0.000000
    22  H    0.000003   0.000010  -0.000002  -0.000007  -0.000000  -0.000000
    23  H   -0.000000  -0.000000   0.000000  -0.000000  -0.000000  -0.000000
               7          8          9         10         11         12
     1  C   -0.078286  -0.093847   0.011022   0.335833  -0.041268  -0.037131
     2  H    0.001459  -0.000409  -0.000542  -0.058346   0.002816   0.006781
     3  N    0.001013  -0.001292  -0.000459  -0.050353   0.004451   0.003854
     4  H   -0.000087   0.000120   0.000026  -0.003581  -0.000074  -0.000698
     5  H    0.000084   0.010143  -0.000264   0.005634  -0.000251   0.000087
     6  C    0.578607   0.279185  -0.007423  -0.026797  -0.004895  -0.002533
     7  O    8.018991  -0.084887   0.011448  -0.006142   0.017158   0.000918
     8  O   -0.084887   8.247860   0.217506   0.002231   0.000483  -0.000070
     9  H    0.011448   0.217506   0.356524  -0.000238  -0.000057  -0.000001
    10  C   -0.006142   0.002231  -0.000238   5.268494   0.354359   0.343811
    11  H    0.017158   0.000483  -0.000057   0.354359   0.536397  -0.024647
    12  H    0.000918  -0.000070  -0.000001   0.343811  -0.024647   0.561764
    13  C    0.000629  -0.000017   0.000002   0.331494  -0.032050  -0.024875
    14  C   -0.000036   0.000000  -0.000000  -0.050049  -0.006038  -0.001974
    15  C    0.000003  -0.000002   0.000000  -0.069916   0.003806  -0.002194
    16  C   -0.000000  -0.000000   0.000000   0.006795   0.000276  -0.000183
    17  H   -0.000009  -0.000000  -0.000000  -0.009766   0.005632   0.000584
    18  C    0.000000  -0.000000   0.000000   0.006681  -0.000117  -0.000157
    19  H   -0.000001   0.000002   0.000000  -0.010835  -0.000099  -0.000028
    20  C    0.000000   0.000000  -0.000000   0.000284  -0.000001   0.000034
    21  H    0.000000   0.000000  -0.000000  -0.000179  -0.000009   0.000003
    22  H   -0.000000   0.000000  -0.000000  -0.000173   0.000002   0.000002
    23  H    0.000000   0.000000  -0.000000   0.000008  -0.000000  -0.000000
              13         14         15         16         17         18
     1  C   -0.027997   0.002197  -0.003850  -0.000133   0.000146  -0.000065
     2  H    0.001097   0.000377   0.004651  -0.000016   0.000016  -0.000395
     3  N   -0.003375  -0.000061  -0.003476   0.000000  -0.000001   0.000144
     4  H   -0.000205  -0.000061   0.001791  -0.000001  -0.000001   0.000054
     5  H    0.000055   0.000006  -0.000224  -0.000000   0.000000  -0.000003
     6  C    0.003210  -0.000180   0.000436   0.000000  -0.000014   0.000000
     7  O    0.000629  -0.000036   0.000003  -0.000000  -0.000009   0.000000
     8  O   -0.000017   0.000000  -0.000002  -0.000000  -0.000000  -0.000000
     9  H    0.000002  -0.000000   0.000000   0.000000  -0.000000   0.000000
    10  C    0.331494  -0.050049  -0.069916   0.006795  -0.009766   0.006681
    11  H   -0.032050  -0.006038   0.003806   0.000276   0.005632  -0.000117
    12  H   -0.024875  -0.001974  -0.002194  -0.000183   0.000584  -0.000157
    13  C    4.662343   0.535655   0.542843  -0.016512  -0.046177  -0.017376
    14  C    0.535655   4.976768  -0.037197   0.519406   0.356247  -0.047246
    15  C    0.542843  -0.037197   5.003243  -0.048388   0.006430   0.519266
    16  C   -0.016512   0.519406  -0.048388   4.870158  -0.046088  -0.026052
    17  H   -0.046177   0.356247   0.006430  -0.046088   0.605068   0.000350
    18  C   -0.017376  -0.047246   0.519266  -0.026052   0.000350   4.868194
    19  H   -0.050471   0.006632   0.336037   0.000302  -0.000177  -0.043181
    20  C   -0.035998  -0.033498  -0.034519   0.547473   0.004902   0.552853
    21  H    0.003790  -0.039447   0.000816   0.356806  -0.005735   0.004641
    22  H    0.003667   0.000832  -0.039527   0.004609   0.000018   0.355997
    23  H    0.000743   0.004592   0.004764  -0.042970  -0.000180  -0.043077
              19         20         21         22         23
     1  C    0.004902   0.000010   0.000001   0.000003  -0.000000
     2  H   -0.003137  -0.000021   0.000000   0.000010  -0.000000
     3  N    0.004482   0.000000  -0.000000  -0.000002   0.000000
     4  H    0.008603   0.000003   0.000000  -0.000007  -0.000000
     5  H    0.000816   0.000000   0.000000  -0.000000  -0.000000
     6  C    0.000118   0.000000  -0.000000  -0.000000  -0.000000
     7  O   -0.000001   0.000000   0.000000  -0.000000   0.000000
     8  O    0.000002   0.000000   0.000000   0.000000   0.000000
     9  H    0.000000  -0.000000  -0.000000  -0.000000  -0.000000
    10  C   -0.010835   0.000284  -0.000179  -0.000173   0.000008
    11  H   -0.000099  -0.000001  -0.000009   0.000002  -0.000000
    12  H   -0.000028   0.000034   0.000003   0.000002  -0.000000
    13  C   -0.050471  -0.035998   0.003790   0.003667   0.000743
    14  C    0.006632  -0.033498  -0.039447   0.000832   0.004592
    15  C    0.336037  -0.034519   0.000816  -0.039527   0.004764
    16  C    0.000302   0.547473   0.356806   0.004609  -0.042970
    17  H   -0.000177   0.004902  -0.005735   0.000018  -0.000180
    18  C   -0.043181   0.552853   0.004641   0.355997  -0.043077
    19  H    0.639252   0.005107   0.000018  -0.006123  -0.000189
    20  C    0.005107   4.851989  -0.043524  -0.042728   0.358698
    21  H    0.000018  -0.043524   0.598001  -0.000192  -0.005511
    22  H   -0.006123  -0.042728  -0.000192   0.600690  -0.005541
    23  H   -0.000189   0.358698  -0.005511  -0.005541   0.599683
 Mulliken charges:
               1
     1  C   -0.056941
     2  H    0.153592
     3  N   -0.732876
     4  H    0.312554
     5  H    0.315699
     6  C    0.606425
     7  O   -0.460860
     8  O   -0.577006
     9  H    0.412455
    10  C   -0.369250
    11  H    0.184125
    12  H    0.176652
    13  C    0.169524
    14  C   -0.186926
    15  C   -0.184793
    16  C   -0.125483
    17  H    0.128755
    18  C   -0.130514
    19  H    0.107971
    20  C   -0.131067
    21  H    0.130520
    22  H    0.128463
    23  H    0.128980
 Sum of Mulliken charges =  -0.00000
 Mulliken charges with hydrogens summed into heavy atoms:
               1
     1  C    0.096651
     3  N   -0.104623
     6  C    0.606425
     7  O   -0.460860
     8  O   -0.164551
    10  C   -0.008473
    13  C    0.169524
    14  C   -0.058170
    15  C   -0.076822
    16  C    0.005037
    18  C   -0.002051
    20  C   -0.002087
 Electronic spatial extent (au):  <R**2>=           2695.2324
 Charge=             -0.0000 electrons
 Dipole moment (field-independent basis, Debye):
    X=              0.3077    Y=              1.7729    Z=             -1.0687  Tot=              2.0929
 Quadrupole moment (field-independent basis, Debye-Ang):
   XX=            -61.3099   YY=            -67.6858   ZZ=            -73.1913
   XY=             -3.6331   XZ=              3.2641   YZ=             -1.5736
 Traceless Quadrupole moment (field-independent basis, Debye-Ang):
   XX=              6.0857   YY=             -0.2901   ZZ=             -5.7956
   XY=             -3.6331   XZ=              3.2641   YZ=             -1.5736
 Octapole moment (field-independent basis, Debye-Ang**2):
  XXX=            -61.5414  YYY=             16.7474  ZZZ=             -4.4618  XYY=              7.2494
  XXY=              2.3765  XXZ=            -25.0430  XZZ=            -16.1664  YZZ=             -3.2579
  YYZ=              1.0333  XYZ=             -1.2830
 Hexadecapole moment (field-independent basis, Debye-Ang**3):
 XXXX=          -2279.3264 YYYY=           -506.4036 ZZZZ=           -170.2341 XXXY=              2.0806
 XXXZ=             53.3396 YYYX=            -39.5713 YYYZ=              0.0056 ZZZX=             25.5068
 ZZZY=             -0.6561 XXYY=           -560.7572 XXZZ=           -507.1523 YYZZ=           -122.8492
 XXYZ=             -7.5413 YYXZ=             -0.5699 ZZXY=             13.9616
 N-N= 6.625917142970D+02 E-N=-2.617033322601D+03  KE= 5.496126146629D+02
 Unable to Open any file for archive entry.
 1\1\GINC-CCC159\SP\RB3LYP TD-FC\6-31G(d)\C9H11N1O2\ROOT\21-Feb-2025\0\
 \# td=(nstat=3) b3lyp/6-31g(d)\\phe | No.13\\0,1\C,0,-1.430207,-0.3635
 09,0.013537\H,0,-1.07563,-0.64769,1.022912\N,0,-1.735837,-1.517872,-0.
 845873\H,0,-0.880243,-2.022429,-1.064458\H,0,-2.356953,-2.161679,-0.36
 1058\C,0,-2.732099,0.401626,0.257944\O,0,-2.891685,1.59895,0.190673\O,
 0,-3.7287,-0.442928,0.624978\H,0,-4.517272,0.113362,0.768338\C,0,-0.37
 0747,0.541202,-0.636078\H,0,-0.598823,1.578068,-0.373015\H,0,-0.507404
 ,0.468055,-1.724295\C,0,1.073377,0.247086,-0.264934\C,0,1.99959,1.3007
 49,-0.252323\C,0,1.535843,-1.033255,0.070043\C,0,3.340396,1.08355,0.06
 2741\H,0,1.66083,2.305945,-0.49348\C,0,2.876358,-1.256431,0.392079\H,0
 ,0.847269,-1.874244,0.094126\C,0,3.785927,-0.199413,0.38633\H,0,4.0354
 81,1.919251,0.064728\H,0,3.206873,-2.259497,0.649481\H,0,4.829187,-0.3
 71835,0.636591\\Version=ES64L-G16RevC.02\State=1-A\HF=-554.7810596\RMS
 D=4.142e-09\PG=C01 [X(C9H11N1O2)]\\@
 The archive entry for this job was punched.


 Time has a wonderful way of weeding out the trivial.
                                -- Richard Ben Sapir
 Job cpu time:       0 days  0 hours  8 minutes  6.9 seconds.
 Elapsed time:       0 days  0 hours  1 minutes  8.2 seconds.
 File lengths (MBytes):  RWF=    272 Int=      0 D2E=      0 Chk=      8 Scr=      1
 Normal termination of Gaussian 16 at Fri Feb 21 15:15:34 2025.
