 Entering Gaussian System, Link 0=/apl/gaussian/16c02/g16/._.g16
 Initial command:
 /apl/gaussian/16c02/g16/l1.exe "/lwork/users/ux8/8287061.ccpbs1/gaussian/Gau-1120719.inp" -scrdir="/lwork/users/ux8/8287061.ccpbs1/gaussian/"
 Default CPUs for threads: 120,121,122,123,124,125,126,127
 Default is to use a total of   8 processors:
                                8 via shared-memory
                                1 via Linda
 Entering Link 1 = /apl/gaussian/16c02/g16/l1.exe PID=   1120720.
  
 Copyright (c) 1988-2021, Gaussian, Inc.  All Rights Reserved.
  
 This is part of the Gaussian(R) 16 program.  It is based on
 the Gaussian(R) 09 system (copyright 2009, Gaussian, Inc.),
 the Gaussian(R) 03 system (copyright 2003, Gaussian, Inc.),
 the Gaussian(R) 98 system (copyright 1998, Gaussian, Inc.),
 the Gaussian(R) 94 system (copyright 1995, Gaussian, Inc.),
 the Gaussian 92(TM) system (copyright 1992, Gaussian, Inc.),
 the Gaussian 90(TM) system (copyright 1990, Gaussian, Inc.),
 the Gaussian 88(TM) system (copyright 1988, Gaussian, Inc.),
 the Gaussian 86(TM) system (copyright 1986, Carnegie Mellon
 University), and the Gaussian 82(TM) system (copyright 1983,
 Carnegie Mellon University). Gaussian is a federally registered
 trademark of Gaussian, Inc.
  
 This software contains proprietary and confidential information,
 including trade secrets, belonging to Gaussian, Inc.
  
 This software is provided under written license and may be
 used, copied, transmitted, or stored only in accord with that
 written license.
  
 The following legend is applicable only to US Government
 contracts under FAR:
  
                    RESTRICTED RIGHTS LEGEND
  
 Use, reproduction and disclosure by the US Government is
 subject to restrictions as set forth in subparagraphs (a)
 and (c) of the Commercial Computer Software - Restricted
 Rights clause in FAR 52.227-19.
  
 Gaussian, Inc.
 340 Quinnipiac St., Bldg. 40, Wallingford CT 06492
  
  
 ---------------------------------------------------------------
 Warning -- This program may not be used in any manner that
 competes with the business of Gaussian, Inc. or will provide
 assistance to any competitor of Gaussian, Inc.  The licensee
 of this program is prohibited from giving any competitor of
 Gaussian, Inc. access to this program.  By using this program,
 the user acknowledges that Gaussian, Inc. is engaged in the
 business of creating and licensing software in the field of
 computational chemistry and represents and warrants to the
 licensee that it is not a competitor of Gaussian, Inc. and that
 it will not use this program in any manner prohibited above.
 ---------------------------------------------------------------
  

 Cite this work as:
 Gaussian 16, Revision C.02,
 M. J. Frisch, G. W. Trucks, H. B. Schlegel, G. E. Scuseria, 
 M. A. Robb, J. R. Cheeseman, G. Scalmani, V. Barone, 
 G. A. Petersson, H. Nakatsuji, X. Li, M. Caricato, A. V. Marenich, 
 J. Bloino, B. G. Janesko, R. Gomperts, B. Mennucci, H. P. Hratchian, 
 J. V. Ortiz, A. F. Izmaylov, J. L. Sonnenberg, D. Williams-Young, 
 F. Ding, F. Lipparini, F. Egidi, J. Goings, B. Peng, A. Petrone, 
 T. Henderson, D. Ranasinghe, V. G. Zakrzewski, J. Gao, N. Rega, 
 G. Zheng, W. Liang, M. Hada, M. Ehara, K. Toyota, R. Fukuda, 
 J. Hasegawa, M. Ishida, T. Nakajima, Y. Honda, O. Kitao, H. Nakai, 
 T. Vreven, K. Throssell, J. A. Montgomery, Jr., J. E. Peralta, 
 F. Ogliaro, M. J. Bearpark, J. J. Heyd, E. N. Brothers, K. N. Kudin, 
 V. N. Staroverov, T. A. Keith, R. Kobayashi, J. Normand, 
 K. Raghavachari, A. P. Rendell, J. C. Burant, S. S. Iyengar, 
 J. Tomasi, M. Cossi, J. M. Millam, M. Klene, C. Adamo, R. Cammi, 
 J. W. Ochterski, R. L. Martin, K. Morokuma, O. Farkas, 
 J. B. Foresman, and D. J. Fox, Gaussian, Inc., Wallingford CT, 2019.
 
 ******************************************
 Gaussian 16:  ES64L-G16RevC.02  7-Dec-2021
                21-Feb-2025 
 ******************************************
 %chk=phe.002.tddft.chk
 %mem=9600MB
 SetSPE:  set environment variable "OMP_PROC_BIND" = "true"
 SetSPE:  set environment variable "OMP_PLACES" = "{120},{121},{122},{123},{124},{125},{126},{127}"
 -----------------------------
 # td=(nstat=3) b3lyp/6-31g(d)
 -----------------------------
 1/38=1,172=1/1;
 2/12=2,17=6,18=5,40=1/2;
 3/5=1,6=6,7=1,11=9,25=1,30=1,74=-5/1,2,3,8;
 4//1;
 5/5=2,38=5/2;
 8/6=1,10=2,108=3/1;
 9/41=3,42=1,70=2/14;
 6/7=2,8=2,9=2,10=2/1;
 99/5=1,9=1/99;
 ----------
 phe | No.2
 ----------
 Symbolic Z-matrix:
 Charge =  0 Multiplicity = 1
 C                    -1.37379   0.06677  -0.3202 
 H                    -1.16278  -0.55862  -1.21107 
 N                    -1.23831   1.50337  -0.57639 
 H                    -0.2858    1.6917   -0.88432 
 H                    -1.86119   1.77984  -1.33194 
 C                    -2.8197   -0.24892   0.05069 
 O                    -3.1863   -0.97917   0.94298 
 O                    -3.69134   0.36114  -0.79288 
 H                    -4.58349   0.10089  -0.49534 
 C                    -0.41915  -0.37206   0.8058 
 H                    -0.65123  -1.41042   1.06279 
 H                    -0.63765   0.23619   1.68941 
 C                     1.0378   -0.23607   0.41578 
 C                     1.80015   0.8616    0.83901 
 C                     1.65574  -1.20247  -0.39228 
 C                     3.13871   0.99399   0.46258 
 H                     1.33816   1.61613   1.47124 
 C                     2.9919   -1.074    -0.7709 
 H                     1.08487  -2.06924  -0.71969 
 C                     3.73866   0.02678  -0.34443 
 H                     3.71272   1.85125   0.80486 
 H                     3.45263  -1.83687  -1.39327 
 H                     4.78112   0.12594  -0.63499 
 
                          Input orientation:                          
 ---------------------------------------------------------------------
 Center     Atomic      Atomic             Coordinates (Angstroms)
 Number     Number       Type             X           Y           Z
 ---------------------------------------------------------------------
      1          6           0       -1.373790    0.066770   -0.320197
      2          1           0       -1.162779   -0.558624   -1.211065
      3          7           0       -1.238311    1.503370   -0.576390
      4          1           0       -0.285802    1.691696   -0.884323
      5          1           0       -1.861185    1.779844   -1.331936
      6          6           0       -2.819702   -0.248917    0.050689
      7          8           0       -3.186299   -0.979168    0.942978
      8          8           0       -3.691339    0.361144   -0.792881
      9          1           0       -4.583492    0.100892   -0.495336
     10          6           0       -0.419151   -0.372056    0.805796
     11          1           0       -0.651227   -1.410418    1.062788
     12          1           0       -0.637645    0.236189    1.689407
     13          6           0        1.037798   -0.236070    0.415777
     14          6           0        1.800148    0.861602    0.839014
     15          6           0        1.655738   -1.202474   -0.392278
     16          6           0        3.138715    0.993990    0.462575
     17          1           0        1.338158    1.616126    1.471239
     18          6           0        2.991901   -1.073995   -0.770898
     19          1           0        1.084868   -2.069238   -0.719688
     20          6           0        3.738662    0.026784   -0.344432
     21          1           0        3.712719    1.851250    0.804859
     22          1           0        3.452627   -1.836874   -1.393271
     23          1           0        4.781120    0.125944   -0.634990
 ---------------------------------------------------------------------
                    Distance matrix (angstroms):
                    1          2          3          4          5
     1  C    0.000000
     2  H    1.108733   0.000000
     3  N    1.465541   2.158781   0.000000
     4  H    2.035274   2.437168   1.018608   0.000000
     5  H    2.048363   2.443525   1.017477   1.640109   0.000000
     6  C    1.525738   2.105549   2.442240   3.325789   2.635579
     7  O    2.444338   2.985195   3.502304   4.345737   3.813569
     8  O    2.383510   2.722952   2.714571   3.657378   2.377552
     9  H    3.214658   3.556474   3.628188   4.599142   3.306015
    10  C    1.540053   2.157665   2.469551   2.670834   3.358576
    11  H    2.148681   2.481460   3.394368   3.680746   4.168510
    12  H    2.146886   3.052905   2.664654   2.977647   3.606721
    13  C    2.539513   2.755575   3.031620   2.675530   3.939862
    14  C    3.471226   3.872829   3.412839   2.830218   4.354486
    15  C    3.285455   3.004828   3.966234   3.519646   4.705946
    16  C    4.672812   4.869757   4.527391   3.745430   5.369994
    17  H    3.600612   4.263681   3.292976   2.862102   4.256805
    18  C    4.534725   4.209599   4.957352   4.290134   5.657880
    19  H    3.281329   2.752330   4.263945   4.006303   4.885643
    20  C    5.112666   5.011774   5.196573   4.388590   5.950350
    21  H    5.506605   5.800166   5.151851   4.343612   5.969874
    22  H    5.298080   4.792608   5.816307   5.165819   6.428142
    23  H    6.163239   6.010859   6.175296   5.309185   6.880504
                    6          7          8          9         10
     6  C    0.000000
     7  O    1.209892   0.000000
     8  O    1.357769   2.250491   0.000000
     9  H    1.879219   2.277592   0.975808   0.000000
    10  C    2.519523   2.836285   3.714911   4.388435   0.000000
    11  H    2.660021   2.574281   3.977967   4.491605   1.094577
    12  H    2.771660   2.920597   3.937311   4.512329   1.094747
    13  C    3.874759   4.321242   4.917546   5.704610   1.514367
    14  C    4.816401   5.316380   5.750649   6.565823   2.539351
    15  C    4.597288   5.027733   5.585393   6.374745   2.535772
    16  C    6.100590   6.643037   6.973256   7.832477   3.826525
    17  H    4.773274   5.242645   5.656594   6.421004   2.735657
    18  C    5.927098   6.412216   6.835628   7.670911   3.822821
    19  H    4.376382   4.711218   5.359503   6.073722   2.733057
    20  C    6.576038   7.115086   7.451028   8.323852   4.332379
    21  H    6.903043   7.458337   7.719667   8.577959   4.692061
    22  H    6.629385   7.090068   7.498533   8.315073   4.687457
    23  H    7.640888   8.197013   8.477194   9.365687   5.419104
                   11         12         13         14         15
    11  H    0.000000
    12  H    1.761860   0.000000
    13  C    2.156507   2.156912   0.000000
    14  C    3.349834   2.656529   1.401853   0.000000
    15  C    2.735424   3.415080   1.403118   2.407767   0.000000
    16  C    4.528255   4.042310   2.434972   1.396780   2.784681
    17  H    3.644784   2.419839   2.152869   1.087405   3.393827
    18  C    4.092428   4.576384   2.434920   2.785431   1.394701
    19  H    2.573964   3.753103   2.156850   3.395733   1.088288
    20  C    4.828762   4.830364   2.818098   2.419773   2.419078
    21  H    5.454267   4.724036   3.415185   2.153717   3.871632
    22  H    4.801636   5.525470   3.415644   3.872410   2.152501
    23  H    5.895189   5.897287   3.904821   3.405888   3.404646
                   16         17         18         19         20
    16  C    0.000000
    17  H    2.155565   0.000000
    18  C    2.412379   3.872828   0.000000
    19  H    3.872906   4.294907   2.151722   0.000000
    20  C    1.395236   3.403688   1.396868   3.402462   0.000000
    21  H    1.086984   2.477476   3.399948   4.959846   2.156437
    22  H    3.399485   4.959799   1.087015   2.472648   2.157568
    23  H    2.157695   4.302421   2.158617   4.299800   1.086727
                   21         22         23
    21  H    0.000000
    22  H    4.301358   0.000000
    23  H    2.488238   2.488481   0.000000
 Stoichiometry    C9H11NO2
 Framework group  C1[X(C9H11NO2)]
 Deg. of freedom    63
 Full point group                 C1      NOp   1
 Largest Abelian subgroup         C1      NOp   1
 Largest concise Abelian subgroup C1      NOp   1
                         Standard orientation:                         
 ---------------------------------------------------------------------
 Center     Atomic      Atomic             Coordinates (Angstroms)
 Number     Number       Type             X           Y           Z
 ---------------------------------------------------------------------
      1          6           0       -1.373790    0.066770   -0.320197
      2          1           0       -1.162779   -0.558624   -1.211065
      3          7           0       -1.238311    1.503370   -0.576390
      4          1           0       -0.285802    1.691696   -0.884323
      5          1           0       -1.861185    1.779844   -1.331936
      6          6           0       -2.819702   -0.248917    0.050689
      7          8           0       -3.186299   -0.979168    0.942978
      8          8           0       -3.691339    0.361144   -0.792881
      9          1           0       -4.583492    0.100892   -0.495336
     10          6           0       -0.419151   -0.372056    0.805796
     11          1           0       -0.651227   -1.410418    1.062788
     12          1           0       -0.637645    0.236189    1.689407
     13          6           0        1.037798   -0.236070    0.415777
     14          6           0        1.800148    0.861602    0.839014
     15          6           0        1.655738   -1.202474   -0.392278
     16          6           0        3.138715    0.993990    0.462575
     17          1           0        1.338158    1.616126    1.471239
     18          6           0        2.991901   -1.073995   -0.770898
     19          1           0        1.084868   -2.069238   -0.719688
     20          6           0        3.738662    0.026784   -0.344432
     21          1           0        3.712719    1.851250    0.804859
     22          1           0        3.452627   -1.836874   -1.393271
     23          1           0        4.781120    0.125944   -0.634990
 ---------------------------------------------------------------------
 Rotational constants (GHZ):           2.5028708           0.4379239           0.4192510
 Standard basis: 6-31G(d) (6D, 7F)
 There are   202 symmetry adapted cartesian basis functions of A   symmetry.
 There are   202 symmetry adapted basis functions of A   symmetry.
   202 basis functions,   380 primitive gaussians,   202 cartesian basis functions
    44 alpha electrons       44 beta electrons
       nuclear repulsion energy       665.8926707198 Hartrees.
 NAtoms=   23 NActive=   23 NUniq=   23 SFac= 1.00D+00 NAtFMM=   60 NAOKFM=F Big=F
 Integral buffers will be    131072 words long.
 Regular integral format.
 Two-electron integral symmetry is turned on.
 One-electron integrals computed using PRISM.
 NBasis=   202 RedAO= T EigKep=  4.67D-04  NBF=   202
 NBsUse=   202 1.00D-06 EigRej= -1.00D+00 NBFU=   202
 ExpMin= 1.61D-01 ExpMax= 5.48D+03 ExpMxC= 8.25D+02 IAcc=3 IRadAn=         5 AccDes= 0.00D+00
 Harris functional with IExCor=  402 and IRadAn=       5 diagonalized for initial guess.
 HarFok:  IExCor=  402 AccDes= 0.00D+00 IRadAn=         5 IDoV= 1 UseB2=F ITyADJ=14
 ICtDFT=  3500011 ScaDFX=  1.000000  1.000000  1.000000  1.000000
 FoFCou: FMM=F IPFlag=           0 FMFlag=      100000 FMFlg1=           0
         NFxFlg=           0 DoJE=T BraDBF=F KetDBF=T FulRan=T
         wScrn=  0.000000 ICntrl=       500 IOpCl=  0 I1Cent=   200000004 NGrid=           0
         NMat0=    1 NMatS0=      1 NMatT0=    0 NMatD0=    1 NMtDS0=    0 NMtDT0=    0
 Petite list used in FoFCou.
 Requested convergence on RMS density matrix=1.00D-08 within 128 cycles.
 Requested convergence on MAX density matrix=1.00D-06.
 Requested convergence on             energy=1.00D-06.
 No special actions if energy rises.
 Integral accuracy reduced to 1.0D-05 until final iterations.
 Initial convergence to 1.0D-05 achieved.  Increase integral accuracy.
 SCF Done:  E(RB3LYP) =  -554.786573655     A.U. after   14 cycles
            NFock= 14  Conv=0.46D-08     -V/T= 2.0094
 DoSCS=F DFT=T ScalE2(SS,OS)=  1.000000  1.000000
 ExpMin= 1.61D-01 ExpMax= 5.48D+03 ExpMxC= 8.25D+02 IAcc=3 IRadAn=         5 AccDes= 0.00D+00
 HarFok:  IExCor=  205 AccDes= 0.00D+00 IRadAn=         5 IDoV=-2 UseB2=F ITyADJ=14
 ICtDFT= 12500011 ScaDFX=  1.000000  1.000000  1.000000  1.000000
 Range of M.O.s used for correlation:    13   202
 NBasis=   202 NAE=    44 NBE=    44 NFC=    12 NFV=     0
 NROrb=    190 NOA=    32 NOB=    32 NVA=   158 NVB=   158
 Keep R1, R2, and R3 ints in memory in canonical form, NReq=656629584.
 Orbital symmetries:
       Occupied  (A) (A) (A) (A) (A) (A) (A) (A) (A) (A) (A) (A)
                 (A) (A) (A) (A) (A) (A) (A) (A) (A) (A) (A) (A)
                 (A) (A) (A) (A) (A) (A) (A) (A) (A) (A) (A) (A)
                 (A) (A) (A) (A) (A) (A) (A) (A)
       Virtual   (A) (A) (A) (A) (A) (A) (A) (A) (A) (A) (A) (A)
                 (A) (A) (A) (A) (A) (A) (A) (A) (A) (A) (A) (A)
                 (A) (A) (A) (A) (A) (A) (A) (A) (A) (A) (A) (A)
                 (A) (A) (A) (A) (A) (A) (A) (A) (A) (A) (A) (A)
                 (A) (A) (A) (A) (A) (A) (A) (A) (A) (A) (A) (A)
                 (A) (A) (A) (A) (A) (A) (A) (A) (A) (A) (A) (A)
                 (A) (A) (A) (A) (A) (A) (A) (A) (A) (A) (A) (A)
                 (A) (A) (A) (A) (A) (A) (A) (A) (A) (A) (A) (A)
                 (A) (A) (A) (A) (A) (A) (A) (A) (A) (A) (A) (A)
                 (A) (A) (A) (A) (A) (A) (A) (A) (A) (A) (A) (A)
                 (A) (A) (A) (A) (A) (A) (A) (A) (A) (A) (A) (A)
                 (A) (A) (A) (A) (A) (A) (A) (A) (A) (A) (A) (A)
                 (A) (A) (A) (A) (A) (A) (A) (A) (A) (A) (A) (A)
                 (A) (A)
    12 initial guesses have been made.
 Convergence on wavefunction:    0.001000000000000
 Iteration     1 Dimension    12 NMult     0 NNew     12
 CISAX will form    12 AO SS matrices at one time.
 New state      2 was old state      5
 Iteration     2 Dimension    18 NMult    12 NNew      6
 Iteration     3 Dimension    24 NMult    18 NNew      6
 Iteration     4 Dimension    30 NMult    24 NNew      6
 Iteration     5 Dimension    36 NMult    30 NNew      6
 Iteration     6 Dimension    38 NMult    36 NNew      2
 ***********************************************************************
 Excited states from <AA,BB:AA,BB> singles matrix:
 ***********************************************************************
 
 Ground to excited state transition densities written to RWF  633
 Ground to excited state transition electric dipole moments (Au):
       state          X           Y           Z        Dip. S.      Osc.
         1         0.0823     -0.0735     -0.0536      0.0151      0.0020
         2         0.1308     -0.0216     -0.0563      0.0208      0.0028
         3         0.2809     -0.0486     -0.0236      0.0818      0.0115
 Ground to excited state transition velocity dipole moments (Au):
       state          X           Y           Z        Dip. S.      Osc.
         1        -0.0168      0.0154      0.0133      0.0007      0.0023
         2        -0.0191      0.0046      0.0148      0.0006      0.0020
         3        -0.0581      0.0120      0.0114      0.0037      0.0116
 Ground to excited state transition magnetic dipole moments (Au):
       state          X           Y           Z
         1         0.0353     -0.1088      0.1499
         2        -0.2537     -0.1543      0.0690
         3         0.1812      0.0480     -0.1173
 Ground to excited state transition velocity quadrupole moments (Au):
       state          XX          YY          ZZ          XY          XZ          YZ
         1        -0.0562      0.0042     -0.0146      0.0760      0.0430     -0.0178
         2         0.1176     -0.0402     -0.0365      0.0188     -0.0923     -0.0884
         3        -0.2982      0.0453     -0.0210     -0.0603     -0.0009     -0.0016
 <0|del|b> * <b|rxdel|0> + <0|del|b> * <b|delr+rdel|0>
 Rotatory Strengths (R) in cgs (10**-40 erg-esu-cm/Gauss)
       state          XX          YY          ZZ    R(velocity)    E-M Angle
         1         1.1906      1.2234     -3.3782     -0.3214       93.13
         2         1.7813     12.8082      3.5874      6.0590       46.38
         3        -2.4204    -18.6237    -16.8810    -12.6417      147.68
 1/2[<0|r|b>*<b|rxdel|0> + (<0|rxdel|b>*<b|r|0>)*]
 Rotatory Strengths (R) in cgs (10**-40 erg-esu-cm/Gauss)
       state          XX          YY          ZZ     R(length)
         1        -2.0555     -5.6528      5.6864     -0.6740
         2        23.4734     -2.3612      2.7505      7.9542
         3       -36.0071      1.6522     -1.9546    -12.1032
  1/2[<0|del|b>*<b|r|0> + (<0|r|b>*<b|del|0>)*] (Au)
       state          X           Y           Z        Dip. S.   Osc.(frdel)
         1        -0.0014     -0.0011     -0.0007      0.0032      0.0021
         2        -0.0025     -0.0001     -0.0008      0.0034      0.0023
         3        -0.0163     -0.0006     -0.0003      0.0172      0.0115

 Excitation energies and oscillator strengths:
 
 Excited State   1:      Singlet-A      5.4112 eV  229.13 nm  f=0.0020  <S**2>=0.000
      42 -> 45         0.32746
      42 -> 46         0.29287
      43 -> 45        -0.16960
      43 -> 46         0.31450
      44 -> 45         0.36415
      44 -> 46        -0.19582
 This state for optimization and/or second-order correction.
 Total Energy, E(TD-HF/TD-DFT) =  -554.587715653    
 Copying the excited state density for this state as the 1-particle RhoCI density.
 
 Excited State   2:      Singlet-A      5.4743 eV  226.48 nm  f=0.0028  <S**2>=0.000
      41 -> 47         0.24957
      43 -> 45         0.16597
      43 -> 47         0.34203
      44 -> 45         0.15822
      44 -> 47         0.48862
 
 Excited State   3:      Singlet-A      5.7343 eV  216.21 nm  f=0.0115  <S**2>=0.000
      42 -> 45        -0.17235
      43 -> 45         0.26980
      44 -> 45         0.46640
      44 -> 46         0.37651
 SavETr:  write IOETrn=   770 NScale= 10 NData=  16 NLR=1 NState=    3 LETran=      64.

 **********************************************************************

            Population analysis using the SCF Density.

 **********************************************************************

 Orbital symmetries:
       Occupied  (A) (A) (A) (A) (A) (A) (A) (A) (A) (A) (A) (A)
                 (A) (A) (A) (A) (A) (A) (A) (A) (A) (A) (A) (A)
                 (A) (A) (A) (A) (A) (A) (A) (A) (A) (A) (A) (A)
                 (A) (A) (A) (A) (A) (A) (A) (A)
       Virtual   (A) (A) (A) (A) (A) (A) (A) (A) (A) (A) (A) (A)
                 (A) (A) (A) (A) (A) (A) (A) (A) (A) (A) (A) (A)
                 (A) (A) (A) (A) (A) (A) (A) (A) (A) (A) (A) (A)
                 (A) (A) (A) (A) (A) (A) (A) (A) (A) (A) (A) (A)
                 (A) (A) (A) (A) (A) (A) (A) (A) (A) (A) (A) (A)
                 (A) (A) (A) (A) (A) (A) (A) (A) (A) (A) (A) (A)
                 (A) (A) (A) (A) (A) (A) (A) (A) (A) (A) (A) (A)
                 (A) (A) (A) (A) (A) (A) (A) (A) (A) (A) (A) (A)
                 (A) (A) (A) (A) (A) (A) (A) (A) (A) (A) (A) (A)
                 (A) (A) (A) (A) (A) (A) (A) (A) (A) (A) (A) (A)
                 (A) (A) (A) (A) (A) (A) (A) (A) (A) (A) (A) (A)
                 (A) (A) (A) (A) (A) (A) (A) (A) (A) (A) (A) (A)
                 (A) (A) (A) (A) (A) (A) (A) (A) (A) (A) (A) (A)
                 (A) (A)
 The electronic state is 1-A.
 Alpha  occ. eigenvalues --  -19.20106 -19.14369 -14.31788 -10.32220 -10.23385
 Alpha  occ. eigenvalues --  -10.19721 -10.19139 -10.19081 -10.18979 -10.18949
 Alpha  occ. eigenvalues --  -10.18826 -10.18767  -1.10905  -1.01855  -0.89542
 Alpha  occ. eigenvalues --   -0.85321  -0.77702  -0.74367  -0.72667  -0.67073
 Alpha  occ. eigenvalues --   -0.60558  -0.59821  -0.56824  -0.51488  -0.50465
 Alpha  occ. eigenvalues --   -0.49369  -0.48616  -0.46044  -0.45276  -0.44748
 Alpha  occ. eigenvalues --   -0.42184  -0.41806  -0.41147  -0.39035  -0.38314
 Alpha  occ. eigenvalues --   -0.36921  -0.35226  -0.33789  -0.33695  -0.32253
 Alpha  occ. eigenvalues --   -0.28225  -0.25089  -0.24539  -0.23881
 Alpha virt. eigenvalues --   -0.00418  -0.00111   0.00598   0.06935   0.09228
 Alpha virt. eigenvalues --    0.10766   0.12487   0.13071   0.14630   0.15912
 Alpha virt. eigenvalues --    0.16396   0.16636   0.18491   0.19133   0.19619
 Alpha virt. eigenvalues --    0.22323   0.22751   0.25320   0.26168   0.30565
 Alpha virt. eigenvalues --    0.31614   0.33286   0.33759   0.34682   0.38509
 Alpha virt. eigenvalues --    0.45982   0.52293   0.52845   0.54395   0.54944
 Alpha virt. eigenvalues --    0.55380   0.55761   0.57493   0.59167   0.59449
 Alpha virt. eigenvalues --    0.59738   0.60731   0.61260   0.61706   0.62069
 Alpha virt. eigenvalues --    0.64773   0.65707   0.66508   0.69820   0.70710
 Alpha virt. eigenvalues --    0.71799   0.72576   0.76298   0.78054   0.80496
 Alpha virt. eigenvalues --    0.82436   0.82895   0.83565   0.83840   0.84173
 Alpha virt. eigenvalues --    0.85719   0.88054   0.89057   0.90149   0.91017
 Alpha virt. eigenvalues --    0.92210   0.92847   0.94313   0.94986   0.96372
 Alpha virt. eigenvalues --    0.97984   0.99828   1.01466   1.02972   1.07074
 Alpha virt. eigenvalues --    1.10367   1.11467   1.12592   1.13249   1.17260
 Alpha virt. eigenvalues --    1.17684   1.21333   1.25714   1.27139   1.30854
 Alpha virt. eigenvalues --    1.38964   1.39719   1.43124   1.43532   1.45310
 Alpha virt. eigenvalues --    1.48349   1.49124   1.51040   1.51418   1.55541
 Alpha virt. eigenvalues --    1.57612   1.61028   1.66193   1.68953   1.74404
 Alpha virt. eigenvalues --    1.75781   1.78242   1.79953   1.80526   1.81313
 Alpha virt. eigenvalues --    1.83423   1.86844   1.89140   1.90708   1.92721
 Alpha virt. eigenvalues --    1.94768   1.96074   1.97569   1.99471   2.00290
 Alpha virt. eigenvalues --    2.04904   2.05829   2.07477   2.14044   2.14129
 Alpha virt. eigenvalues --    2.14865   2.16298   2.21272   2.22329   2.26579
 Alpha virt. eigenvalues --    2.28685   2.31276   2.34348   2.36733   2.38173
 Alpha virt. eigenvalues --    2.40603   2.43558   2.52124   2.54159   2.57803
 Alpha virt. eigenvalues --    2.58215   2.61980   2.63726   2.65740   2.67842
 Alpha virt. eigenvalues --    2.72431   2.74535   2.74722   2.76826   2.79402
 Alpha virt. eigenvalues --    2.85138   2.92956   2.98918   3.05056   3.11600
 Alpha virt. eigenvalues --    3.40784   3.79733   3.84065   4.09079   4.11872
 Alpha virt. eigenvalues --    4.12479   4.15260   4.25329   4.33447   4.39956
 Alpha virt. eigenvalues --    4.43053   4.62040   4.70543
          Condensed to atoms (all electrons):
               1          2          3          4          5          6
     1  C    5.130370   0.348718   0.281245  -0.030817  -0.026639   0.296896
     2  H    0.348718   0.637288  -0.043936  -0.004506  -0.003052  -0.037560
     3  N    0.281245  -0.043936   6.992055   0.297794   0.302375  -0.038050
     4  H   -0.030817  -0.004506   0.297794   0.439700  -0.027618   0.005229
     5  H   -0.026639  -0.003052   0.302375  -0.027618   0.431939  -0.010277
     6  C    0.296896  -0.037560  -0.038050   0.005229  -0.010277   4.358059
     7  O   -0.080231   0.001209   0.001203  -0.000090   0.000096   0.571876
     8  O   -0.094155  -0.000214  -0.001563   0.000055   0.011252   0.282486
     9  H    0.010986  -0.000549  -0.000354   0.000033  -0.000304  -0.007275
    10  C    0.338499  -0.053145  -0.061524  -0.006938   0.006291  -0.029584
    11  H   -0.034116   0.001200   0.004635   0.000000  -0.000224  -0.004304
    12  H   -0.035067   0.006438   0.002109  -0.000372  -0.000045  -0.005516
    13  C   -0.035163  -0.005303  -0.006376   0.009691   0.000095   0.004764
    14  C   -0.004737   0.000655   0.000116   0.006180  -0.000036  -0.000123
    15  C   -0.003827   0.004492  -0.000383   0.000333  -0.000030   0.000127
    16  C   -0.000109  -0.000006  -0.000075   0.000138   0.000002   0.000001
    17  H    0.000061   0.000069   0.001161  -0.000187  -0.000009  -0.000033
    18  C    0.000017  -0.000179   0.000013  -0.000091  -0.000001   0.000003
    19  H    0.000346   0.002135   0.000021  -0.000018  -0.000001  -0.000107
    20  C    0.000021   0.000000   0.000011  -0.000086  -0.000000  -0.000000
    21  H   -0.000000   0.000000  -0.000001   0.000000   0.000000  -0.000000
    22  H   -0.000001   0.000003   0.000000  -0.000000   0.000000  -0.000000
    23  H    0.000000  -0.000000   0.000000  -0.000000  -0.000000   0.000000
               7          8          9         10         11         12
     1  C   -0.080231  -0.094155   0.010986   0.338499  -0.034116  -0.035067
     2  H    0.001209  -0.000214  -0.000549  -0.053145   0.001200   0.006438
     3  N    0.001203  -0.001563  -0.000354  -0.061524   0.004635   0.002109
     4  H   -0.000090   0.000055   0.000033  -0.006938   0.000000  -0.000372
     5  H    0.000096   0.011252  -0.000304   0.006291  -0.000224  -0.000045
     6  C    0.571876   0.282486  -0.007275  -0.029584  -0.004304  -0.005516
     7  O    8.029264  -0.084056   0.011636   0.002423   0.007770   0.002200
     8  O   -0.084056   8.246848   0.216616   0.002615   0.000161  -0.000001
     9  H    0.011636   0.216616   0.358265  -0.000258  -0.000019  -0.000017
    10  C    0.002423   0.002615  -0.000258   5.207211   0.352634   0.356355
    11  H    0.007770   0.000161  -0.000019   0.352634   0.561284  -0.027330
    12  H    0.002200  -0.000001  -0.000017   0.356355  -0.027330   0.562584
    13  C    0.000699  -0.000017   0.000001   0.336019  -0.030965  -0.031121
    14  C   -0.000005  -0.000001   0.000000  -0.049660   0.003329  -0.004719
    15  C   -0.000003  -0.000001   0.000000  -0.060046  -0.005349   0.004422
    16  C   -0.000000  -0.000000   0.000000   0.006596  -0.000185   0.000198
    17  H    0.000001   0.000000  -0.000000  -0.009447   0.000051   0.006568
    18  C   -0.000000  -0.000000   0.000000   0.006213   0.000115  -0.000188
    19  H    0.000002   0.000001  -0.000000  -0.008504   0.004009   0.000058
    20  C    0.000000   0.000000  -0.000000   0.000375   0.000014   0.000009
    21  H   -0.000000   0.000000  -0.000000  -0.000172   0.000003  -0.000008
    22  H   -0.000000   0.000000  -0.000000  -0.000175  -0.000005   0.000003
    23  H    0.000000  -0.000000  -0.000000   0.000006  -0.000000  -0.000000
              13         14         15         16         17         18
     1  C   -0.035163  -0.004737  -0.003827  -0.000109   0.000061   0.000017
     2  H   -0.005303   0.000655   0.004492  -0.000006   0.000069  -0.000179
     3  N   -0.006376   0.000116  -0.000383  -0.000075   0.001161   0.000013
     4  H    0.009691   0.006180   0.000333   0.000138  -0.000187  -0.000091
     5  H    0.000095  -0.000036  -0.000030   0.000002  -0.000009  -0.000001
     6  C    0.004764  -0.000123   0.000127   0.000001  -0.000033   0.000003
     7  O    0.000699  -0.000005  -0.000003  -0.000000   0.000001  -0.000000
     8  O   -0.000017  -0.000001  -0.000001  -0.000000   0.000000  -0.000000
     9  H    0.000001   0.000000   0.000000   0.000000  -0.000000   0.000000
    10  C    0.336019  -0.049660  -0.060046   0.006596  -0.009447   0.006213
    11  H   -0.030965   0.003329  -0.005349  -0.000185   0.000051   0.000115
    12  H   -0.031121  -0.004719   0.004422   0.000198   0.006568  -0.000188
    13  C    4.685401   0.545466   0.538160  -0.022592  -0.042040  -0.017719
    14  C    0.545466   4.972596  -0.044032   0.516225   0.355283  -0.046054
    15  C    0.538160  -0.044032   4.977178  -0.046372   0.006296   0.525016
    16  C   -0.022592   0.516225  -0.046372   4.877377  -0.045841  -0.026610
    17  H   -0.042040   0.355283   0.006296  -0.045841   0.590956   0.000335
    18  C   -0.017719  -0.046054   0.525016  -0.026610   0.000335   4.866105
    19  H   -0.047015   0.006171   0.354488   0.000353  -0.000176  -0.045258
    20  C   -0.034521  -0.035617  -0.035629   0.551183   0.004703   0.548179
    21  H    0.003762  -0.039253   0.000812   0.356793  -0.005448   0.004596
    22  H    0.003684   0.000809  -0.039794   0.004604   0.000017   0.356889
    23  H    0.000666   0.004653   0.004727  -0.043189  -0.000173  -0.042995
              19         20         21         22         23
     1  C    0.000346   0.000021  -0.000000  -0.000001   0.000000
     2  H    0.002135   0.000000   0.000000   0.000003  -0.000000
     3  N    0.000021   0.000011  -0.000001   0.000000   0.000000
     4  H   -0.000018  -0.000086   0.000000  -0.000000  -0.000000
     5  H   -0.000001  -0.000000   0.000000   0.000000  -0.000000
     6  C   -0.000107  -0.000000  -0.000000  -0.000000   0.000000
     7  O    0.000002   0.000000  -0.000000  -0.000000   0.000000
     8  O    0.000001   0.000000   0.000000   0.000000  -0.000000
     9  H   -0.000000  -0.000000  -0.000000  -0.000000  -0.000000
    10  C   -0.008504   0.000375  -0.000172  -0.000175   0.000006
    11  H    0.004009   0.000014   0.000003  -0.000005  -0.000000
    12  H    0.000058   0.000009  -0.000008   0.000003  -0.000000
    13  C   -0.047015  -0.034521   0.003762   0.003684   0.000666
    14  C    0.006171  -0.035617  -0.039253   0.000809   0.004653
    15  C    0.354488  -0.035629   0.000812  -0.039794   0.004727
    16  C    0.000353   0.551183   0.356793   0.004604  -0.043189
    17  H   -0.000176   0.004703  -0.005448   0.000017  -0.000173
    18  C   -0.045258   0.548179   0.004596   0.356889  -0.042995
    19  H    0.609221   0.004827   0.000018  -0.005666  -0.000181
    20  C    0.004827   4.854611  -0.043317  -0.043088   0.359171
    21  H    0.000018  -0.043317   0.596771  -0.000188  -0.005588
    22  H   -0.005666  -0.043088  -0.000188   0.598188  -0.005514
    23  H   -0.000181   0.359171  -0.005588  -0.005514   0.598658
 Mulliken charges:
               1
     1  C   -0.062295
     2  H    0.146243
     3  N   -0.730474
     4  H    0.311570
     5  H    0.316187
     6  C    0.613388
     7  O   -0.463996
     8  O   -0.580027
     9  H    0.411238
    10  C   -0.335786
    11  H    0.167291
    12  H    0.163440
    13  C    0.144424
    14  C   -0.187247
    15  C   -0.180585
    16  C   -0.128490
    17  H    0.137853
    18  C   -0.128386
    19  H    0.125277
    20  C   -0.130844
    21  H    0.131224
    22  H    0.130235
    23  H    0.129758
 Sum of Mulliken charges =  -0.00000
 Mulliken charges with hydrogens summed into heavy atoms:
               1
     1  C    0.083948
     3  N   -0.102717
     6  C    0.613388
     7  O   -0.463996
     8  O   -0.168789
    10  C   -0.005054
    13  C    0.144424
    14  C   -0.049393
    15  C   -0.055308
    16  C    0.002734
    18  C    0.001849
    20  C   -0.001086
 Electronic spatial extent (au):  <R**2>=           2640.1542
 Charge=             -0.0000 electrons
 Dipole moment (field-independent basis, Debye):
    X=              0.4685    Y=              0.3729    Z=             -2.1813  Tot=              2.2620
 Quadrupole moment (field-independent basis, Debye-Ang):
   XX=            -61.2634   YY=            -70.2238   ZZ=            -70.7892
   XY=             -0.5890   XZ=              3.8689   YZ=              2.7559
 Traceless Quadrupole moment (field-independent basis, Debye-Ang):
   XX=              6.1620   YY=             -2.7983   ZZ=             -3.3638
   XY=             -0.5890   XZ=              3.8689   YZ=              2.7559
 Octapole moment (field-independent basis, Debye-Ang**2):
  XXX=            -63.8314  YYY=             -1.4432  ZZZ=             -3.6183  XYY=              1.5416
  XXY=             13.8755  XXZ=            -25.3043  XZZ=             -8.3828  YZZ=              5.9143
  YYZ=             -7.8818  XYZ=              1.9686
 Hexadecapole moment (field-independent basis, Debye-Ang**3):
 XXXX=          -2232.9005 YYYY=           -408.0153 ZZZZ=           -271.8093 XXXY=            -11.8287
 XXXZ=             35.9549 YYYX=              7.5672 YYYZ=             -5.2676 ZZZX=              6.7823
 ZZZY=             -6.0963 XXYY=           -529.6745 XXZZ=           -527.0676 YYZZ=           -102.1645
 XXYZ=             42.1943 YYXZ=             12.5752 ZZXY=            -10.9679
 N-N= 6.658926707198D+02 E-N=-2.623711584076D+03  KE= 5.496264149350D+02
 Unable to Open any file for archive entry.
 1\1\GINC-CCC087\SP\RB3LYP TD-FC\6-31G(d)\C9H11N1O2\ROOT\21-Feb-2025\0\
 \# td=(nstat=3) b3lyp/6-31g(d)\\phe | No.2\\0,1\C,0,-1.37379,0.06677,-
 0.320197\H,0,-1.162779,-0.558624,-1.211065\N,0,-1.238311,1.50337,-0.57
 639\H,0,-0.285802,1.691696,-0.884323\H,0,-1.861185,1.779844,-1.331936\
 C,0,-2.819702,-0.248917,0.050689\O,0,-3.186299,-0.979168,0.942978\O,0,
 -3.691339,0.361144,-0.792881\H,0,-4.583492,0.100892,-0.495336\C,0,-0.4
 19151,-0.372056,0.805796\H,0,-0.651227,-1.410418,1.062788\H,0,-0.63764
 5,0.236189,1.689407\C,0,1.037798,-0.23607,0.415777\C,0,1.800148,0.8616
 02,0.839014\C,0,1.655738,-1.202474,-0.392278\C,0,3.138715,0.99399,0.46
 2575\H,0,1.338158,1.616126,1.471239\C,0,2.991901,-1.073995,-0.770898\H
 ,0,1.084868,-2.069238,-0.719688\C,0,3.738662,0.026784,-0.344432\H,0,3.
 712719,1.85125,0.804859\H,0,3.452627,-1.836874,-1.393271\H,0,4.78112,0
 .125944,-0.63499\\Version=ES64L-G16RevC.02\State=1-A\HF=-554.7865737\R
 MSD=4.589e-09\PG=C01 [X(C9H11N1O2)]\\@
 The archive entry for this job was punched.


 THE ... SCIENTISTS WERE WRONG ... THE MOST PERSISTENT PRINCIPLES 
 OF THE UNIVERSE WERE ACCIDENT AND ERROR.

                          -- FRANK HERBERT IN DUNE
 Job cpu time:       0 days  0 hours  9 minutes 39.1 seconds.
 Elapsed time:       0 days  0 hours  1 minutes 18.1 seconds.
 File lengths (MBytes):  RWF=    272 Int=      0 D2E=      0 Chk=      8 Scr=      1
 Normal termination of Gaussian 16 at Fri Feb 21 15:15:31 2025.
