 Entering Gaussian System, Link 0=/apl/gaussian/16c02/g16/._.g16
 Initial command:
 /apl/gaussian/16c02/g16/l1.exe "/lwork/users/ux8/8287064.ccpbs1/gaussian/Gau-1685778.inp" -scrdir="/lwork/users/ux8/8287064.ccpbs1/gaussian/"
 Default CPUs for threads: 88,89,90,91,92,93,94,95
 Default is to use a total of   8 processors:
                                8 via shared-memory
                                1 via Linda
 Entering Link 1 = /apl/gaussian/16c02/g16/l1.exe PID=   1685779.
  
 Copyright (c) 1988-2021, Gaussian, Inc.  All Rights Reserved.
  
 This is part of the Gaussian(R) 16 program.  It is based on
 the Gaussian(R) 09 system (copyright 2009, Gaussian, Inc.),
 the Gaussian(R) 03 system (copyright 2003, Gaussian, Inc.),
 the Gaussian(R) 98 system (copyright 1998, Gaussian, Inc.),
 the Gaussian(R) 94 system (copyright 1995, Gaussian, Inc.),
 the Gaussian 92(TM) system (copyright 1992, Gaussian, Inc.),
 the Gaussian 90(TM) system (copyright 1990, Gaussian, Inc.),
 the Gaussian 88(TM) system (copyright 1988, Gaussian, Inc.),
 the Gaussian 86(TM) system (copyright 1986, Carnegie Mellon
 University), and the Gaussian 82(TM) system (copyright 1983,
 Carnegie Mellon University). Gaussian is a federally registered
 trademark of Gaussian, Inc.
  
 This software contains proprietary and confidential information,
 including trade secrets, belonging to Gaussian, Inc.
  
 This software is provided under written license and may be
 used, copied, transmitted, or stored only in accord with that
 written license.
  
 The following legend is applicable only to US Government
 contracts under FAR:
  
                    RESTRICTED RIGHTS LEGEND
  
 Use, reproduction and disclosure by the US Government is
 subject to restrictions as set forth in subparagraphs (a)
 and (c) of the Commercial Computer Software - Restricted
 Rights clause in FAR 52.227-19.
  
 Gaussian, Inc.
 340 Quinnipiac St., Bldg. 40, Wallingford CT 06492
  
  
 ---------------------------------------------------------------
 Warning -- This program may not be used in any manner that
 competes with the business of Gaussian, Inc. or will provide
 assistance to any competitor of Gaussian, Inc.  The licensee
 of this program is prohibited from giving any competitor of
 Gaussian, Inc. access to this program.  By using this program,
 the user acknowledges that Gaussian, Inc. is engaged in the
 business of creating and licensing software in the field of
 computational chemistry and represents and warrants to the
 licensee that it is not a competitor of Gaussian, Inc. and that
 it will not use this program in any manner prohibited above.
 ---------------------------------------------------------------
  

 Cite this work as:
 Gaussian 16, Revision C.02,
 M. J. Frisch, G. W. Trucks, H. B. Schlegel, G. E. Scuseria, 
 M. A. Robb, J. R. Cheeseman, G. Scalmani, V. Barone, 
 G. A. Petersson, H. Nakatsuji, X. Li, M. Caricato, A. V. Marenich, 
 J. Bloino, B. G. Janesko, R. Gomperts, B. Mennucci, H. P. Hratchian, 
 J. V. Ortiz, A. F. Izmaylov, J. L. Sonnenberg, D. Williams-Young, 
 F. Ding, F. Lipparini, F. Egidi, J. Goings, B. Peng, A. Petrone, 
 T. Henderson, D. Ranasinghe, V. G. Zakrzewski, J. Gao, N. Rega, 
 G. Zheng, W. Liang, M. Hada, M. Ehara, K. Toyota, R. Fukuda, 
 J. Hasegawa, M. Ishida, T. Nakajima, Y. Honda, O. Kitao, H. Nakai, 
 T. Vreven, K. Throssell, J. A. Montgomery, Jr., J. E. Peralta, 
 F. Ogliaro, M. J. Bearpark, J. J. Heyd, E. N. Brothers, K. N. Kudin, 
 V. N. Staroverov, T. A. Keith, R. Kobayashi, J. Normand, 
 K. Raghavachari, A. P. Rendell, J. C. Burant, S. S. Iyengar, 
 J. Tomasi, M. Cossi, J. M. Millam, M. Klene, C. Adamo, R. Cammi, 
 J. W. Ochterski, R. L. Martin, K. Morokuma, O. Farkas, 
 J. B. Foresman, and D. J. Fox, Gaussian, Inc., Wallingford CT, 2019.
 
 ******************************************
 Gaussian 16:  ES64L-G16RevC.02  7-Dec-2021
                21-Feb-2025 
 ******************************************
 %chk=phe.005.tddft.chk
 %mem=9600MB
 SetSPE:  set environment variable "OMP_PROC_BIND" = "true"
 SetSPE:  set environment variable "OMP_PLACES" = "{88},{89},{90},{91},{92},{93},{94},{95}"
 -----------------------------
 # td=(nstat=3) b3lyp/6-31g(d)
 -----------------------------
 1/38=1,172=1/1;
 2/12=2,17=6,18=5,40=1/2;
 3/5=1,6=6,7=1,11=9,25=1,30=1,74=-5/1,2,3,8;
 4//1;
 5/5=2,38=5/2;
 8/6=1,10=2,108=3/1;
 9/41=3,42=1,70=2/14;
 6/7=2,8=2,9=2,10=2/1;
 99/5=1,9=1/99;
 ----------
 phe | No.5
 ----------
 Symbolic Z-matrix:
 Charge =  0 Multiplicity = 1
 C                    -1.40717  -0.32696  -0.06936 
 H                    -1.24025  -1.22745   0.55407 
 N                    -1.29288  -0.58958  -1.50765 
 H                    -0.34402  -0.90158  -1.70767 
 H                    -1.92235  -1.34354  -1.77333 
 C                    -2.83502   0.10663   0.24839 
 O                    -3.16405   1.04004   0.94418 
 O                    -3.73998  -0.73044  -0.32068 
 H                    -4.61935  -0.39032  -0.06933 
 C                    -0.40774   0.75937   0.35462 
 H                    -0.61994   1.02699   1.39656 
 H                    -0.6046    1.6536   -0.24503 
 C                     1.0465    0.34893   0.20858 
 C                     1.95269   1.1853   -0.457 
 C                     1.53856  -0.83624   0.77786 
 C                     3.30344   0.84849  -0.56233 
 H                     1.59212   2.11027  -0.90084 
 C                     2.88662  -1.1794    0.67187 
 H                     0.86525  -1.49604   1.32064 
 C                     3.77549  -0.33766   0.00014 
 H                     3.98535   1.51389  -1.08547 
 H                     3.244    -2.10284   1.12042 
 H                     4.82602  -0.6035   -0.08115 
 
                          Input orientation:                          
 ---------------------------------------------------------------------
 Center     Atomic      Atomic             Coordinates (Angstroms)
 Number     Number       Type             X           Y           Z
 ---------------------------------------------------------------------
      1          6           0       -1.407174   -0.326955   -0.069361
      2          1           0       -1.240246   -1.227450    0.554066
      3          7           0       -1.292880   -0.589583   -1.507645
      4          1           0       -0.344017   -0.901581   -1.707673
      5          1           0       -1.922348   -1.343536   -1.773328
      6          6           0       -2.835024    0.106626    0.248390
      7          8           0       -3.164048    1.040041    0.944184
      8          8           0       -3.739984   -0.730435   -0.320682
      9          1           0       -4.619347   -0.390317   -0.069332
     10          6           0       -0.407743    0.759371    0.354623
     11          1           0       -0.619943    1.026985    1.396560
     12          1           0       -0.604595    1.653604   -0.245025
     13          6           0        1.046500    0.348925    0.208578
     14          6           0        1.952693    1.185299   -0.457002
     15          6           0        1.538563   -0.836239    0.777861
     16          6           0        3.303441    0.848485   -0.562326
     17          1           0        1.592122    2.110271   -0.900839
     18          6           0        2.886619   -1.179396    0.671873
     19          1           0        0.865253   -1.496043    1.320644
     20          6           0        3.775487   -0.337660    0.000135
     21          1           0        3.985349    1.513894   -1.085474
     22          1           0        3.244002   -2.102844    1.120421
     23          1           0        4.826019   -0.603497   -0.081148
 ---------------------------------------------------------------------
                    Distance matrix (angstroms):
                    1          2          3          4          5
     1  C    0.000000
     2  H    1.107889   0.000000
     3  N    1.466526   2.158772   0.000000
     4  H    2.035820   2.454563   1.018673   0.000000
     5  H    2.049962   2.428065   1.017479   1.640355   0.000000
     6  C    1.525685   2.101550   2.438560   3.323820   2.650149
     7  O    2.445927   2.999120   3.488325   4.330683   3.822058
     8  O    2.380748   2.694605   2.723424   3.672278   2.406216
     9  H    3.212798   3.536628   3.629578   4.606951   3.329569
    10  C    1.535815   2.163399   2.463978   2.648752   3.353270
    11  H    2.145183   2.485367   3.391245   3.664937   4.166992
    12  H    2.144203   3.056644   2.664551   2.955708   3.613175
    13  C    2.560191   2.798844   3.049413   2.677559   3.950498
    14  C    3.704846   4.127769   3.845491   3.345762   4.810786
    15  C    3.107173   2.815122   3.647115   3.118695   4.329413
    16  C    4.880017   5.118684   4.907936   4.204581   5.794856
    17  H    3.953126   4.612964   3.997582   3.670268   5.004150
    18  C    4.439903   4.128826   4.750409   4.021993   5.397417
    19  H    2.909090   2.256748   3.671298   3.314577   4.167330
    20  C    5.183138   5.124075   5.293884   4.494989   6.051635
    21  H    5.787963   6.124533   5.697591   4.996505   6.598404
    22  H    5.118867   4.603863   5.457104   4.723879   5.970051
    23  H    6.239336   6.131263   6.282994   5.428048   6.996541
                    6          7          8          9         10
     6  C    0.000000
     7  O    1.209814   0.000000
     8  O    1.357743   2.250816   0.000000
     9  H    1.879284   2.278384   0.975775   0.000000
    10  C    2.515761   2.832592   3.712060   4.386243   0.000000
    11  H    2.659312   2.584044   3.971410   4.489189   1.096485
    12  H    2.758879   2.888162   3.939547   4.508516   1.094523
    13  C    3.889283   4.329835   4.935136   5.720624   1.518097
    14  C    4.958160   5.307114   6.007927   6.769384   2.532155
    15  C    4.505285   5.065831   5.392685   6.231889   2.552099
    16  C    6.236054   6.643394   7.222272   8.034192   3.823823
    17  H    4.993490   5.212548   6.069394   6.747347   2.720400
    18  C    5.879659   6.450630   6.715549   7.583637   3.835660
    19  H    4.172568   4.775847   4.948567   5.765024   2.764165
    20  C    6.630074   7.137677   7.532563   8.395287   4.339188
    21  H    7.090634   7.447008   8.081008   8.871266   4.684276
    22  H    6.526619   7.139460   7.261979   8.135141   4.702549
    23  H    7.700938   8.221538   8.570292   9.447779   5.425824
                   11         12         13         14         15
    11  H    0.000000
    12  H    1.757182   0.000000
    13  C    2.155945   2.152686   0.000000
    14  C    3.174777   2.608441   1.401322   0.000000
    15  C    2.917797   3.440747   1.403860   2.404788   0.000000
    16  C    4.388854   4.002704   2.436726   1.396086   2.783737
    17  H    3.368202   2.337563   2.151941   1.087463   3.391581
    18  C    4.205861   4.588591   2.436482   2.781791   1.395079
    19  H    2.928693   3.812092   2.161816   3.395901   1.087796
    20  C    4.809580   4.817713   2.821740   2.418875   2.420179
    21  H    5.254169   4.668347   3.415927   2.152822   3.870646
    22  H    4.980176   5.548607   3.416379   3.868802   2.151780
    23  H    5.873721   5.883275   3.908428   3.405446   3.405794
                   16         17         18         19         20
    16  C    0.000000
    17  H    2.152976   0.000000
    18  C    2.410247   3.869245   0.000000
    19  H    3.871324   4.297537   2.146413   0.000000
    20  C    1.395038   3.401647   1.396366   3.399273   0.000000
    21  H    1.086946   2.473316   3.398424   4.958238   2.156581
    22  H    3.397869   4.956262   1.087048   2.463076   2.157172
    23  H    2.158246   4.300526   2.158697   4.295268   1.086689
                   21         22         23
    21  H    0.000000
    22  H    4.300740   0.000000
    23  H    2.489727   2.488893   0.000000
 Stoichiometry    C9H11NO2
 Framework group  C1[X(C9H11NO2)]
 Deg. of freedom    63
 Full point group                 C1      NOp   1
 Largest Abelian subgroup         C1      NOp   1
 Largest concise Abelian subgroup C1      NOp   1
                         Standard orientation:                         
 ---------------------------------------------------------------------
 Center     Atomic      Atomic             Coordinates (Angstroms)
 Number     Number       Type             X           Y           Z
 ---------------------------------------------------------------------
      1          6           0        1.407174   -0.326955    0.069361
      2          1           0        1.240246   -1.227450   -0.554066
      3          7           0        1.292880   -0.589583    1.507645
      4          1           0        0.344017   -0.901581    1.707673
      5          1           0        1.922348   -1.343536    1.773328
      6          6           0        2.835024    0.106626   -0.248390
      7          8           0        3.164048    1.040041   -0.944184
      8          8           0        3.739984   -0.730435    0.320682
      9          1           0        4.619347   -0.390317    0.069332
     10          6           0        0.407743    0.759371   -0.354623
     11          1           0        0.619943    1.026985   -1.396560
     12          1           0        0.604595    1.653604    0.245025
     13          6           0       -1.046500    0.348925   -0.208578
     14          6           0       -1.952693    1.185299    0.457002
     15          6           0       -1.538563   -0.836239   -0.777861
     16          6           0       -3.303441    0.848485    0.562326
     17          1           0       -1.592122    2.110271    0.900839
     18          6           0       -2.886619   -1.179396   -0.671873
     19          1           0       -0.865253   -1.496043   -1.320644
     20          6           0       -3.775487   -0.337660   -0.000135
     21          1           0       -3.985349    1.513894    1.085474
     22          1           0       -3.244002   -2.102844   -1.120421
     23          1           0       -4.826019   -0.603497    0.081148
 ---------------------------------------------------------------------
 Rotational constants (GHZ):           2.5596392           0.4274540           0.4161265
 Standard basis: 6-31G(d) (6D, 7F)
 There are   202 symmetry adapted cartesian basis functions of A   symmetry.
 There are   202 symmetry adapted basis functions of A   symmetry.
   202 basis functions,   380 primitive gaussians,   202 cartesian basis functions
    44 alpha electrons       44 beta electrons
       nuclear repulsion energy       664.5811567181 Hartrees.
 NAtoms=   23 NActive=   23 NUniq=   23 SFac= 1.00D+00 NAtFMM=   60 NAOKFM=F Big=F
 Integral buffers will be    131072 words long.
 Regular integral format.
 Two-electron integral symmetry is turned on.
 One-electron integrals computed using PRISM.
 NBasis=   202 RedAO= T EigKep=  4.65D-04  NBF=   202
 NBsUse=   202 1.00D-06 EigRej= -1.00D+00 NBFU=   202
 ExpMin= 1.61D-01 ExpMax= 5.48D+03 ExpMxC= 8.25D+02 IAcc=3 IRadAn=         5 AccDes= 0.00D+00
 Harris functional with IExCor=  402 and IRadAn=       5 diagonalized for initial guess.
 HarFok:  IExCor=  402 AccDes= 0.00D+00 IRadAn=         5 IDoV= 1 UseB2=F ITyADJ=14
 ICtDFT=  3500011 ScaDFX=  1.000000  1.000000  1.000000  1.000000
 FoFCou: FMM=F IPFlag=           0 FMFlag=      100000 FMFlg1=           0
         NFxFlg=           0 DoJE=T BraDBF=F KetDBF=T FulRan=T
         wScrn=  0.000000 ICntrl=       500 IOpCl=  0 I1Cent=   200000004 NGrid=           0
         NMat0=    1 NMatS0=      1 NMatT0=    0 NMatD0=    1 NMtDS0=    0 NMtDT0=    0
 Petite list used in FoFCou.
 Requested convergence on RMS density matrix=1.00D-08 within 128 cycles.
 Requested convergence on MAX density matrix=1.00D-06.
 Requested convergence on             energy=1.00D-06.
 No special actions if energy rises.
 Integral accuracy reduced to 1.0D-05 until final iterations.
 Initial convergence to 1.0D-05 achieved.  Increase integral accuracy.
 SCF Done:  E(RB3LYP) =  -554.785052539     A.U. after   14 cycles
            NFock= 14  Conv=0.54D-08     -V/T= 2.0094
 DoSCS=F DFT=T ScalE2(SS,OS)=  1.000000  1.000000
 ExpMin= 1.61D-01 ExpMax= 5.48D+03 ExpMxC= 8.25D+02 IAcc=3 IRadAn=         5 AccDes= 0.00D+00
 HarFok:  IExCor=  205 AccDes= 0.00D+00 IRadAn=         5 IDoV=-2 UseB2=F ITyADJ=14
 ICtDFT= 12500011 ScaDFX=  1.000000  1.000000  1.000000  1.000000
 Range of M.O.s used for correlation:    13   202
 NBasis=   202 NAE=    44 NBE=    44 NFC=    12 NFV=     0
 NROrb=    190 NOA=    32 NOB=    32 NVA=   158 NVB=   158
 Keep R1, R2, and R3 ints in memory in canonical form, NReq=656629584.
 Orbital symmetries:
       Occupied  (A) (A) (A) (A) (A) (A) (A) (A) (A) (A) (A) (A)
                 (A) (A) (A) (A) (A) (A) (A) (A) (A) (A) (A) (A)
                 (A) (A) (A) (A) (A) (A) (A) (A) (A) (A) (A) (A)
                 (A) (A) (A) (A) (A) (A) (A) (A)
       Virtual   (A) (A) (A) (A) (A) (A) (A) (A) (A) (A) (A) (A)
                 (A) (A) (A) (A) (A) (A) (A) (A) (A) (A) (A) (A)
                 (A) (A) (A) (A) (A) (A) (A) (A) (A) (A) (A) (A)
                 (A) (A) (A) (A) (A) (A) (A) (A) (A) (A) (A) (A)
                 (A) (A) (A) (A) (A) (A) (A) (A) (A) (A) (A) (A)
                 (A) (A) (A) (A) (A) (A) (A) (A) (A) (A) (A) (A)
                 (A) (A) (A) (A) (A) (A) (A) (A) (A) (A) (A) (A)
                 (A) (A) (A) (A) (A) (A) (A) (A) (A) (A) (A) (A)
                 (A) (A) (A) (A) (A) (A) (A) (A) (A) (A) (A) (A)
                 (A) (A) (A) (A) (A) (A) (A) (A) (A) (A) (A) (A)
                 (A) (A) (A) (A) (A) (A) (A) (A) (A) (A) (A) (A)
                 (A) (A) (A) (A) (A) (A) (A) (A) (A) (A) (A) (A)
                 (A) (A) (A) (A) (A) (A) (A) (A) (A) (A) (A) (A)
                 (A) (A)
    12 initial guesses have been made.
 Convergence on wavefunction:    0.001000000000000
 Iteration     1 Dimension    12 NMult     0 NNew     12
 CISAX will form    12 AO SS matrices at one time.
 New state      2 was old state      5
 New state      3 was old state      2
 Iteration     2 Dimension    18 NMult    12 NNew      6
 Iteration     3 Dimension    24 NMult    18 NNew      6
 Iteration     4 Dimension    30 NMult    24 NNew      6
 Iteration     5 Dimension    36 NMult    30 NNew      6
 Iteration     6 Dimension    40 NMult    36 NNew      4
 ***********************************************************************
 Excited states from <AA,BB:AA,BB> singles matrix:
 ***********************************************************************
 
 Ground to excited state transition densities written to RWF  633
 Ground to excited state transition electric dipole moments (Au):
       state          X           Y           Z        Dip. S.      Osc.
         1         0.0839      0.1033      0.0368      0.0191      0.0025
         2         0.0906      0.0126      0.0313      0.0093      0.0012
         3         0.1767      0.0531      0.0231      0.0346      0.0049
 Ground to excited state transition velocity dipole moments (Au):
       state          X           Y           Z        Dip. S.      Osc.
         1        -0.0163     -0.0223     -0.0080      0.0008      0.0028
         2        -0.0129     -0.0048     -0.0061      0.0002      0.0008
         3        -0.0390     -0.0195     -0.0083      0.0020      0.0062
 Ground to excited state transition magnetic dipole moments (Au):
       state          X           Y           Z
         1        -0.0648     -0.0804      0.2566
         2        -0.2300     -0.0705      0.0320
         3         0.2024      0.1387     -0.0427
 Ground to excited state transition velocity quadrupole moments (Au):
       state          XX          YY          ZZ          XY          XZ          YZ
         1         0.0169      0.0149      0.0189      0.0521      0.0732      0.0479
         2        -0.0903      0.0176      0.0392     -0.1121      0.0098      0.0720
         3         0.2140      0.0271     -0.0315      0.0525      0.0084     -0.0181
 <0|del|b> * <b|rxdel|0> + <0|del|b> * <b|delr+rdel|0>
 Rotatory Strengths (R) in cgs (10**-40 erg-esu-cm/Gauss)
       state          XX          YY          ZZ    R(velocity)    E-M Angle
         1         1.6779     -2.4327      3.5630      0.9361       84.31
         2         1.5504      2.0350      7.3903      3.6586       31.80
         3        -4.3971    -10.7384    -19.2434    -11.4597      157.94
 1/2[<0|r|b>*<b|rxdel|0> + (<0|rxdel|b>*<b|r|0>)*]
 Rotatory Strengths (R) in cgs (10**-40 erg-esu-cm/Gauss)
       state          XX          YY          ZZ     R(length)
         1         3.8452      5.8733     -6.6692      1.0165
         2        14.7360      0.6267     -0.7088      4.8846
         3       -25.2930     -5.2079      0.6992     -9.9339
  1/2[<0|del|b>*<b|r|0> + (<0|r|b>*<b|del|0>)*] (Au)
       state          X           Y           Z        Dip. S.   Osc.(frdel)
         1        -0.0014     -0.0023     -0.0003      0.0040      0.0026
         2        -0.0012     -0.0001     -0.0002      0.0014      0.0009
         3        -0.0069     -0.0010     -0.0002      0.0081      0.0054

 Excitation energies and oscillator strengths:
 
 Excited State   1:      Singlet-A      5.4036 eV  229.45 nm  f=0.0025  <S**2>=0.000
      42 -> 45         0.28127
      42 -> 46         0.30648
      43 -> 45         0.17557
      43 -> 46        -0.17203
      43 -> 47        -0.18582
      44 -> 45         0.38516
      44 -> 46        -0.25308
      44 -> 47         0.10540
 This state for optimization and/or second-order correction.
 Total Energy, E(TD-HF/TD-DFT) =  -554.586472261    
 Copying the excited state density for this state as the 1-particle RhoCI density.
 
 Excited State   2:      Singlet-A      5.4332 eV  228.20 nm  f=0.0012  <S**2>=0.000
      41 -> 47        -0.20614
      42 -> 45        -0.10588
      42 -> 46        -0.15329
      43 -> 45        -0.34863
      43 -> 46         0.13294
      43 -> 47        -0.24806
      44 -> 45         0.18318
      44 -> 47         0.41706
 
 Excited State   3:      Singlet-A      5.7284 eV  216.44 nm  f=0.0049  <S**2>=0.000
      41 -> 47         0.12514
      43 -> 45        -0.23366
      43 -> 46        -0.10926
      43 -> 47         0.20558
      44 -> 45         0.47017
      44 -> 46         0.31127
      44 -> 47        -0.21486
 SavETr:  write IOETrn=   770 NScale= 10 NData=  16 NLR=1 NState=    3 LETran=      64.

 **********************************************************************

            Population analysis using the SCF Density.

 **********************************************************************

 Orbital symmetries:
       Occupied  (A) (A) (A) (A) (A) (A) (A) (A) (A) (A) (A) (A)
                 (A) (A) (A) (A) (A) (A) (A) (A) (A) (A) (A) (A)
                 (A) (A) (A) (A) (A) (A) (A) (A) (A) (A) (A) (A)
                 (A) (A) (A) (A) (A) (A) (A) (A)
       Virtual   (A) (A) (A) (A) (A) (A) (A) (A) (A) (A) (A) (A)
                 (A) (A) (A) (A) (A) (A) (A) (A) (A) (A) (A) (A)
                 (A) (A) (A) (A) (A) (A) (A) (A) (A) (A) (A) (A)
                 (A) (A) (A) (A) (A) (A) (A) (A) (A) (A) (A) (A)
                 (A) (A) (A) (A) (A) (A) (A) (A) (A) (A) (A) (A)
                 (A) (A) (A) (A) (A) (A) (A) (A) (A) (A) (A) (A)
                 (A) (A) (A) (A) (A) (A) (A) (A) (A) (A) (A) (A)
                 (A) (A) (A) (A) (A) (A) (A) (A) (A) (A) (A) (A)
                 (A) (A) (A) (A) (A) (A) (A) (A) (A) (A) (A) (A)
                 (A) (A) (A) (A) (A) (A) (A) (A) (A) (A) (A) (A)
                 (A) (A) (A) (A) (A) (A) (A) (A) (A) (A) (A) (A)
                 (A) (A) (A) (A) (A) (A) (A) (A) (A) (A) (A) (A)
                 (A) (A) (A) (A) (A) (A) (A) (A) (A) (A) (A) (A)
                 (A) (A)
 The electronic state is 1-A.
 Alpha  occ. eigenvalues --  -19.20078 -19.14371 -14.31809 -10.32212 -10.23396
 Alpha  occ. eigenvalues --  -10.19839 -10.19173 -10.19050 -10.19020 -10.18959
 Alpha  occ. eigenvalues --  -10.18866 -10.18812  -1.10888  -1.01850  -0.89544
 Alpha  occ. eigenvalues --   -0.85339  -0.77714  -0.74387  -0.72715  -0.67141
 Alpha  occ. eigenvalues --   -0.60817  -0.59727  -0.56673  -0.51639  -0.50461
 Alpha  occ. eigenvalues --   -0.49354  -0.48568  -0.45948  -0.45161  -0.45128
 Alpha  occ. eigenvalues --   -0.42181  -0.41570  -0.41275  -0.39061  -0.38611
 Alpha  occ. eigenvalues --   -0.36920  -0.35194  -0.33872  -0.33667  -0.32239
 Alpha  occ. eigenvalues --   -0.28269  -0.25059  -0.24497  -0.23864
 Alpha virt. eigenvalues --   -0.00510  -0.00041   0.00680   0.06906   0.09089
 Alpha virt. eigenvalues --    0.10443   0.11986   0.13030   0.14587   0.15994
 Alpha virt. eigenvalues --    0.16184   0.16516   0.18726   0.19398   0.20554
 Alpha virt. eigenvalues --    0.22413   0.22907   0.25355   0.26830   0.30391
 Alpha virt. eigenvalues --    0.31731   0.32706   0.34144   0.35124   0.38898
 Alpha virt. eigenvalues --    0.46633   0.52046   0.52463   0.54178   0.54707
 Alpha virt. eigenvalues --    0.55366   0.56860   0.58131   0.58590   0.59387
 Alpha virt. eigenvalues --    0.59748   0.60937   0.61514   0.61707   0.62409
 Alpha virt. eigenvalues --    0.65073   0.65490   0.66880   0.69159   0.70818
 Alpha virt. eigenvalues --    0.71474   0.72299   0.77011   0.77228   0.80648
 Alpha virt. eigenvalues --    0.81396   0.82415   0.83507   0.84052   0.84323
 Alpha virt. eigenvalues --    0.85995   0.88934   0.89771   0.90482   0.90952
 Alpha virt. eigenvalues --    0.91393   0.92750   0.94228   0.95536   0.97139
 Alpha virt. eigenvalues --    0.98465   1.00393   1.00747   1.03282   1.07015
 Alpha virt. eigenvalues --    1.08562   1.11515   1.12400   1.14076   1.16813
 Alpha virt. eigenvalues --    1.18456   1.19624   1.25275   1.26500   1.29609
 Alpha virt. eigenvalues --    1.36609   1.40230   1.43301   1.44060   1.44566
 Alpha virt. eigenvalues --    1.48101   1.49167   1.50807   1.51802   1.54833
 Alpha virt. eigenvalues --    1.57817   1.64462   1.65927   1.68596   1.74506
 Alpha virt. eigenvalues --    1.75633   1.77536   1.79800   1.81356   1.81846
 Alpha virt. eigenvalues --    1.83072   1.87254   1.88857   1.90533   1.92234
 Alpha virt. eigenvalues --    1.94867   1.96158   1.97730   1.98805   2.00692
 Alpha virt. eigenvalues --    2.05425   2.05765   2.07760   2.13845   2.14412
 Alpha virt. eigenvalues --    2.15008   2.16628   2.20423   2.22443   2.25687
 Alpha virt. eigenvalues --    2.30173   2.30909   2.34213   2.36994   2.37668
 Alpha virt. eigenvalues --    2.40734   2.44851   2.52737   2.53429   2.57812
 Alpha virt. eigenvalues --    2.59028   2.59813   2.63236   2.65822   2.67396
 Alpha virt. eigenvalues --    2.72265   2.74690   2.75772   2.78253   2.79505
 Alpha virt. eigenvalues --    2.85117   2.92435   2.98585   3.05331   3.12984
 Alpha virt. eigenvalues --    3.40725   3.79794   3.84572   4.08969   4.11578
 Alpha virt. eigenvalues --    4.12151   4.14777   4.26720   4.32910   4.37733
 Alpha virt. eigenvalues --    4.43385   4.60977   4.70177
          Condensed to atoms (all electrons):
               1          2          3          4          5          6
     1  C    5.136068   0.347799   0.285293  -0.032125  -0.026330   0.296439
     2  H    0.347799   0.642046  -0.044856  -0.004220  -0.003644  -0.039514
     3  N    0.285293  -0.044856   6.979306   0.302361   0.302734  -0.040493
     4  H   -0.032125  -0.004220   0.302361   0.439843  -0.028523   0.005441
     5  H   -0.026330  -0.003644   0.302734  -0.028523   0.434045  -0.009478
     6  C    0.296439  -0.039514  -0.040493   0.005441  -0.009478   4.355394
     7  O   -0.081022   0.001326   0.001071  -0.000092   0.000080   0.572563
     8  O   -0.095834   0.000083  -0.001147   0.000055   0.010604   0.284027
     9  H    0.011104  -0.000587  -0.000387   0.000033  -0.000275  -0.007591
    10  C    0.333380  -0.051283  -0.063020  -0.008000   0.006453  -0.028115
    11  H   -0.035120   0.000889   0.004618   0.000085  -0.000233  -0.003751
    12  H   -0.034193   0.006498   0.003688  -0.000755  -0.000097  -0.006083
    13  C   -0.032136  -0.007511  -0.002958   0.010784  -0.000060   0.004644
    14  C   -0.000186   0.000071   0.000142   0.001216   0.000003  -0.000107
    15  C   -0.002243   0.002424  -0.001646   0.002821   0.000005   0.000189
    16  C   -0.000168   0.000001   0.000001  -0.000049   0.000000   0.000001
    17  H    0.000182   0.000006   0.000006   0.000002  -0.000000  -0.000008
    18  C    0.000184   0.000001  -0.000075  -0.000117   0.000001  -0.000001
    19  H    0.000947   0.005938  -0.000063  -0.000142  -0.000010  -0.000176
    20  C    0.000012   0.000001   0.000008  -0.000066  -0.000000   0.000000
    21  H    0.000001   0.000000  -0.000000  -0.000001   0.000000  -0.000000
    22  H    0.000001   0.000005  -0.000000  -0.000000   0.000000  -0.000000
    23  H   -0.000000  -0.000000   0.000000  -0.000000  -0.000000   0.000000
               7          8          9         10         11         12
     1  C   -0.081022  -0.095834   0.011104   0.333380  -0.035120  -0.034193
     2  H    0.001326   0.000083  -0.000587  -0.051283   0.000889   0.006498
     3  N    0.001071  -0.001147  -0.000387  -0.063020   0.004618   0.003688
     4  H   -0.000092   0.000055   0.000033  -0.008000   0.000085  -0.000755
     5  H    0.000080   0.010604  -0.000275   0.006453  -0.000233  -0.000097
     6  C    0.572563   0.284027  -0.007591  -0.028115  -0.003751  -0.006083
     7  O    8.028744  -0.083971   0.011591   0.003199   0.007062   0.002636
     8  O   -0.083971   8.247208   0.217001   0.002654   0.000145  -0.000013
     9  H    0.011591   0.217001   0.358158  -0.000266  -0.000016  -0.000020
    10  C    0.003199   0.002654  -0.000266   5.217983   0.353151   0.354855
    11  H    0.007062   0.000145  -0.000016   0.353151   0.559379  -0.027015
    12  H    0.002636  -0.000013  -0.000020   0.354855  -0.027015   0.562658
    13  C    0.000711  -0.000014   0.000001   0.331868  -0.029785  -0.033473
    14  C   -0.000006   0.000000   0.000000  -0.043041  -0.000137  -0.005526
    15  C    0.000002  -0.000002   0.000000  -0.069687  -0.003653   0.004832
    16  C   -0.000000  -0.000000   0.000000   0.006706  -0.000208   0.000232
    17  H    0.000001   0.000000  -0.000000  -0.010611   0.000116   0.007490
    18  C   -0.000000  -0.000000   0.000000   0.005907  -0.000028  -0.000144
    19  H    0.000005   0.000002  -0.000000  -0.008585   0.001334   0.000041
    20  C    0.000000   0.000000  -0.000000   0.000364   0.000033   0.000001
    21  H   -0.000000   0.000000  -0.000000  -0.000175   0.000003  -0.000011
    22  H   -0.000000   0.000000  -0.000000  -0.000174  -0.000000   0.000003
    23  H    0.000000  -0.000000  -0.000000   0.000007  -0.000000  -0.000000
              13         14         15         16         17         18
     1  C   -0.032136  -0.000186  -0.002243  -0.000168   0.000182   0.000184
     2  H   -0.007511   0.000071   0.002424   0.000001   0.000006   0.000001
     3  N   -0.002958   0.000142  -0.001646   0.000001   0.000006  -0.000075
     4  H    0.010784   0.001216   0.002821  -0.000049   0.000002  -0.000117
     5  H   -0.000060   0.000003   0.000005   0.000000  -0.000000   0.000001
     6  C    0.004644  -0.000107   0.000189   0.000001  -0.000008  -0.000001
     7  O    0.000711  -0.000006   0.000002  -0.000000   0.000001  -0.000000
     8  O   -0.000014   0.000000  -0.000002  -0.000000   0.000000  -0.000000
     9  H    0.000001   0.000000   0.000000   0.000000  -0.000000   0.000000
    10  C    0.331868  -0.043041  -0.069687   0.006706  -0.010611   0.005907
    11  H   -0.029785  -0.000137  -0.003653  -0.000208   0.000116  -0.000028
    12  H   -0.033473  -0.005526   0.004832   0.000232   0.007490  -0.000144
    13  C    4.675563   0.554287   0.530234  -0.021110  -0.041109  -0.017340
    14  C    0.554287   4.960286  -0.044686   0.519798   0.353792  -0.044926
    15  C    0.530234  -0.044686   4.999000  -0.046765   0.006533   0.526427
    16  C   -0.021110   0.519798  -0.046765   4.871416  -0.046560  -0.027099
    17  H   -0.041109   0.353792   0.006533  -0.046560   0.599604   0.000353
    18  C   -0.017340  -0.044926   0.526427  -0.027099   0.000353   4.861143
    19  H   -0.048650   0.005834   0.353544   0.000424  -0.000180  -0.043424
    20  C   -0.034473  -0.035907  -0.035933   0.551503   0.004781   0.549435
    21  H    0.003802  -0.039103   0.000800   0.356914  -0.005591   0.004623
    22  H    0.003526   0.000840  -0.040375   0.004604   0.000017   0.357167
    23  H    0.000700   0.004619   0.004778  -0.043053  -0.000177  -0.043014
              19         20         21         22         23
     1  C    0.000947   0.000012   0.000001   0.000001  -0.000000
     2  H    0.005938   0.000001   0.000000   0.000005  -0.000000
     3  N   -0.000063   0.000008  -0.000000  -0.000000   0.000000
     4  H   -0.000142  -0.000066  -0.000001  -0.000000  -0.000000
     5  H   -0.000010  -0.000000   0.000000   0.000000  -0.000000
     6  C   -0.000176   0.000000  -0.000000  -0.000000   0.000000
     7  O    0.000005   0.000000  -0.000000  -0.000000   0.000000
     8  O    0.000002   0.000000   0.000000   0.000000  -0.000000
     9  H   -0.000000  -0.000000  -0.000000  -0.000000  -0.000000
    10  C   -0.008585   0.000364  -0.000175  -0.000174   0.000007
    11  H    0.001334   0.000033   0.000003  -0.000000  -0.000000
    12  H    0.000041   0.000001  -0.000011   0.000003  -0.000000
    13  C   -0.048650  -0.034473   0.003802   0.003526   0.000700
    14  C    0.005834  -0.035907  -0.039103   0.000840   0.004619
    15  C    0.353544  -0.035933   0.000800  -0.040375   0.004778
    16  C    0.000424   0.551503   0.356914   0.004604  -0.043053
    17  H   -0.000180   0.004781  -0.005591   0.000017  -0.000177
    18  C   -0.043424   0.549435   0.004623   0.357167  -0.043014
    19  H    0.609414   0.004779   0.000018  -0.005659  -0.000185
    20  C    0.004779   4.853946  -0.043584  -0.042754   0.358850
    21  H    0.000018  -0.043584   0.596883  -0.000189  -0.005578
    22  H   -0.005659  -0.042754  -0.000189   0.598744  -0.005486
    23  H   -0.000185   0.358850  -0.005578  -0.005486   0.598792
 Mulliken charges:
               1
     1  C   -0.072050
     2  H    0.144526
     3  N   -0.724583
     4  H    0.311450
     5  H    0.314725
     6  C    0.616618
     7  O   -0.463900
     8  O   -0.580800
     9  H    0.411254
    10  C   -0.333570
    11  H    0.173133
    12  H    0.164397
    13  C    0.152498
    14  C   -0.187262
    15  C   -0.186599
    16  C   -0.126588
    17  H    0.131354
    18  C   -0.129071
    19  H    0.124794
    20  C   -0.130995
    21  H    0.131188
    22  H    0.129733
    23  H    0.129748
 Sum of Mulliken charges =  -0.00000
 Mulliken charges with hydrogens summed into heavy atoms:
               1
     1  C    0.072476
     3  N   -0.098408
     6  C    0.616618
     7  O   -0.463900
     8  O   -0.169546
    10  C    0.003960
    13  C    0.152498
    14  C   -0.055908
    15  C   -0.061805
    16  C    0.004600
    18  C    0.000661
    20  C   -0.001246
 Electronic spatial extent (au):  <R**2>=           2671.6769
 Charge=             -0.0000 electrons
 Dipole moment (field-independent basis, Debye):
    X=             -0.4466    Y=             -2.1414    Z=              0.3098  Tot=              2.2093
 Quadrupole moment (field-independent basis, Debye-Ang):
   XX=            -60.6816   YY=            -68.2093   ZZ=            -73.1755
   XY=             -4.7067   XZ=              0.1488   YZ=              2.7083
 Traceless Quadrupole moment (field-independent basis, Debye-Ang):
   XX=              6.6739   YY=             -0.8538   ZZ=             -5.8200
   XY=             -4.7067   XZ=              0.1488   YZ=              2.7083
 Octapole moment (field-independent basis, Debye-Ang**2):
  XXX=             63.4592  YYY=             -3.6347  ZZZ=             -0.7424  XYY=             -0.2013
  XXY=            -18.7694  XXZ=             13.2145  XZZ=              7.3743  YZZ=             -7.8426
  YYZ=              5.8724  XYZ=             -2.0105
 Hexadecapole moment (field-independent basis, Debye-Ang**3):
 XXXX=          -2257.3937 YYYY=           -371.0615 ZZZZ=           -295.7478 XXXY=            -43.9419
 XXXZ=              1.0607 YYYX=             -6.9648 YYYZ=              3.2489 ZZZX=             -7.6594
 ZZZY=            -15.7304 XXYY=           -536.4630 XXZZ=           -541.3206 YYZZ=           -100.6236
 XXYZ=             42.4475 YYXZ=             10.8562 ZZXY=            -14.4053
 N-N= 6.645811567181D+02 E-N=-2.621065005271D+03  KE= 5.496230267155D+02
 Unable to Open any file for archive entry.
 1\1\GINC-CCC099\SP\RB3LYP TD-FC\6-31G(d)\C9H11N1O2\ROOT\21-Feb-2025\0\
 \# td=(nstat=3) b3lyp/6-31g(d)\\phe | No.5\\0,1\C,0,-1.407174,-0.32695
 5,-0.069361\H,0,-1.240246,-1.22745,0.554066\N,0,-1.29288,-0.589583,-1.
 507645\H,0,-0.344017,-0.901581,-1.707673\H,0,-1.922348,-1.343536,-1.77
 3328\C,0,-2.835024,0.106626,0.24839\O,0,-3.164048,1.040041,0.944184\O,
 0,-3.739984,-0.730435,-0.320682\H,0,-4.619347,-0.390317,-0.069332\C,0,
 -0.407743,0.759371,0.354623\H,0,-0.619943,1.026985,1.39656\H,0,-0.6045
 95,1.653604,-0.245025\C,0,1.0465,0.348925,0.208578\C,0,1.952693,1.1852
 99,-0.457002\C,0,1.538563,-0.836239,0.777861\C,0,3.303441,0.848485,-0.
 562326\H,0,1.592122,2.110271,-0.900839\C,0,2.886619,-1.179396,0.671873
 \H,0,0.865253,-1.496043,1.320644\C,0,3.775487,-0.33766,0.000135\H,0,3.
 985349,1.513894,-1.085474\H,0,3.244002,-2.102844,1.120421\H,0,4.826019
 ,-0.603497,-0.081148\\Version=ES64L-G16RevC.02\State=1-A\HF=-554.78505
 25\RMSD=5.379e-09\PG=C01 [X(C9H11N1O2)]\\@
 The archive entry for this job was punched.


 WE HAVE LEFT UNDONE THOSE THINGS WHICH WE OUGHT TO HAVE DONE,
 AND WE HAVE DONE THOSE THINGS WHICH WE OUGHT NOT TO HAVE DONE.
                   BOOK OF COMMON PRAYER                      
 Job cpu time:       0 days  0 hours 14 minutes 12.1 seconds.
 Elapsed time:       0 days  0 hours  1 minutes 51.8 seconds.
 File lengths (MBytes):  RWF=    272 Int=      0 D2E=      0 Chk=      8 Scr=      1
 Normal termination of Gaussian 16 at Fri Feb 21 15:16:05 2025.
