 Entering Gaussian System, Link 0=/apl/gaussian/16c02/g16/._.g16
 Initial command:
 /apl/gaussian/16c02/g16/l1.exe "/lwork/users/ux8/8287063.ccpbs1/gaussian/Gau-1685631.inp" -scrdir="/lwork/users/ux8/8287063.ccpbs1/gaussian/"
 Default CPUs for threads: 80,81,82,83,84,85,86,87
 Default is to use a total of   8 processors:
                                8 via shared-memory
                                1 via Linda
 Entering Link 1 = /apl/gaussian/16c02/g16/l1.exe PID=   1685632.
  
 Copyright (c) 1988-2021, Gaussian, Inc.  All Rights Reserved.
  
 This is part of the Gaussian(R) 16 program.  It is based on
 the Gaussian(R) 09 system (copyright 2009, Gaussian, Inc.),
 the Gaussian(R) 03 system (copyright 2003, Gaussian, Inc.),
 the Gaussian(R) 98 system (copyright 1998, Gaussian, Inc.),
 the Gaussian(R) 94 system (copyright 1995, Gaussian, Inc.),
 the Gaussian 92(TM) system (copyright 1992, Gaussian, Inc.),
 the Gaussian 90(TM) system (copyright 1990, Gaussian, Inc.),
 the Gaussian 88(TM) system (copyright 1988, Gaussian, Inc.),
 the Gaussian 86(TM) system (copyright 1986, Carnegie Mellon
 University), and the Gaussian 82(TM) system (copyright 1983,
 Carnegie Mellon University). Gaussian is a federally registered
 trademark of Gaussian, Inc.
  
 This software contains proprietary and confidential information,
 including trade secrets, belonging to Gaussian, Inc.
  
 This software is provided under written license and may be
 used, copied, transmitted, or stored only in accord with that
 written license.
  
 The following legend is applicable only to US Government
 contracts under FAR:
  
                    RESTRICTED RIGHTS LEGEND
  
 Use, reproduction and disclosure by the US Government is
 subject to restrictions as set forth in subparagraphs (a)
 and (c) of the Commercial Computer Software - Restricted
 Rights clause in FAR 52.227-19.
  
 Gaussian, Inc.
 340 Quinnipiac St., Bldg. 40, Wallingford CT 06492
  
  
 ---------------------------------------------------------------
 Warning -- This program may not be used in any manner that
 competes with the business of Gaussian, Inc. or will provide
 assistance to any competitor of Gaussian, Inc.  The licensee
 of this program is prohibited from giving any competitor of
 Gaussian, Inc. access to this program.  By using this program,
 the user acknowledges that Gaussian, Inc. is engaged in the
 business of creating and licensing software in the field of
 computational chemistry and represents and warrants to the
 licensee that it is not a competitor of Gaussian, Inc. and that
 it will not use this program in any manner prohibited above.
 ---------------------------------------------------------------
  

 Cite this work as:
 Gaussian 16, Revision C.02,
 M. J. Frisch, G. W. Trucks, H. B. Schlegel, G. E. Scuseria, 
 M. A. Robb, J. R. Cheeseman, G. Scalmani, V. Barone, 
 G. A. Petersson, H. Nakatsuji, X. Li, M. Caricato, A. V. Marenich, 
 J. Bloino, B. G. Janesko, R. Gomperts, B. Mennucci, H. P. Hratchian, 
 J. V. Ortiz, A. F. Izmaylov, J. L. Sonnenberg, D. Williams-Young, 
 F. Ding, F. Lipparini, F. Egidi, J. Goings, B. Peng, A. Petrone, 
 T. Henderson, D. Ranasinghe, V. G. Zakrzewski, J. Gao, N. Rega, 
 G. Zheng, W. Liang, M. Hada, M. Ehara, K. Toyota, R. Fukuda, 
 J. Hasegawa, M. Ishida, T. Nakajima, Y. Honda, O. Kitao, H. Nakai, 
 T. Vreven, K. Throssell, J. A. Montgomery, Jr., J. E. Peralta, 
 F. Ogliaro, M. J. Bearpark, J. J. Heyd, E. N. Brothers, K. N. Kudin, 
 V. N. Staroverov, T. A. Keith, R. Kobayashi, J. Normand, 
 K. Raghavachari, A. P. Rendell, J. C. Burant, S. S. Iyengar, 
 J. Tomasi, M. Cossi, J. M. Millam, M. Klene, C. Adamo, R. Cammi, 
 J. W. Ochterski, R. L. Martin, K. Morokuma, O. Farkas, 
 J. B. Foresman, and D. J. Fox, Gaussian, Inc., Wallingford CT, 2019.
 
 ******************************************
 Gaussian 16:  ES64L-G16RevC.02  7-Dec-2021
                21-Feb-2025 
 ******************************************
 %chk=phe.004.tddft.chk
 %mem=9600MB
 SetSPE:  set environment variable "OMP_PROC_BIND" = "true"
 SetSPE:  set environment variable "OMP_PLACES" = "{80},{81},{82},{83},{84},{85},{86},{87}"
 -----------------------------
 # td=(nstat=3) b3lyp/6-31g(d)
 -----------------------------
 1/38=1,172=1/1;
 2/12=2,17=6,18=5,40=1/2;
 3/5=1,6=6,7=1,11=9,25=1,30=1,74=-5/1,2,3,8;
 4//1;
 5/5=2,38=5/2;
 8/6=1,10=2,108=3/1;
 9/41=3,42=1,70=2/14;
 6/7=2,8=2,9=2,10=2/1;
 99/5=1,9=1/99;
 ----------
 phe | No.4
 ----------
 Symbolic Z-matrix:
 Charge =  0 Multiplicity = 1
 C                    -1.39345  -0.22998  -0.2342 
 H                    -1.20389  -1.32081  -0.18739 
 N                    -1.27445   0.32018  -1.58817 
 H                    -0.32072   0.17572  -1.9159 
 H                    -1.89192  -0.18236  -2.22181 
 C                    -2.82896  -0.0592    0.25331 
 O                    -3.17391   0.34026   1.34201 
 O                    -3.71945  -0.46497  -0.68775 
 H                    -4.60442  -0.33007  -0.29943 
 C                    -0.4115    0.47574   0.71495 
 H                    -0.63478   0.15111   1.7375 
 H                    -0.6116    1.5509    0.67202 
 C                     1.04268   0.2008    0.38283 
 C                     1.91283   1.24901   0.0563 
 C                     1.56423  -1.10193   0.43058 
 C                     3.25932   1.00699  -0.22541 
 H                     1.52863   2.26566   0.02069 
 C                     2.90714  -1.34904   0.14762 
 H                     0.91523  -1.93172   0.70304 
 C                     3.76087  -0.29375  -0.18271 
 H                     3.9147    1.83689  -0.47677 
 H                     3.28957  -2.3656    0.19208 
 H                     4.80817  -0.48517  -0.40051 
 
                          Input orientation:                          
 ---------------------------------------------------------------------
 Center     Atomic      Atomic             Coordinates (Angstroms)
 Number     Number       Type             X           Y           Z
 ---------------------------------------------------------------------
      1          6           0       -1.393447   -0.229983   -0.234200
      2          1           0       -1.203885   -1.320806   -0.187387
      3          7           0       -1.274445    0.320183   -1.588170
      4          1           0       -0.320719    0.175721   -1.915899
      5          1           0       -1.891915   -0.182361   -2.221811
      6          6           0       -2.828957   -0.059200    0.253305
      7          8           0       -3.173909    0.340264    1.342014
      8          8           0       -3.719454   -0.464967   -0.687753
      9          1           0       -4.604417   -0.330066   -0.299429
     10          6           0       -0.411497    0.475739    0.714951
     11          1           0       -0.634775    0.151110    1.737497
     12          1           0       -0.611598    1.550902    0.672019
     13          6           0        1.042684    0.200802    0.382826
     14          6           0        1.912830    1.249009    0.056301
     15          6           0        1.564234   -1.101933    0.430581
     16          6           0        3.259316    1.006986   -0.225410
     17          1           0        1.528627    2.265664    0.020694
     18          6           0        2.907141   -1.349035    0.147618
     19          1           0        0.915232   -1.931724    0.703036
     20          6           0        3.760868   -0.293751   -0.182708
     21          1           0        3.914697    1.836886   -0.476774
     22          1           0        3.289568   -2.365603    0.192083
     23          1           0        4.808174   -0.485173   -0.400511
 ---------------------------------------------------------------------
                    Distance matrix (angstroms):
                    1          2          3          4          5
     1  C    0.000000
     2  H    1.108161   0.000000
     3  N    1.466315   2.158707   0.000000
     4  H    2.035547   2.450985   1.018758   0.000000
     5  H    2.049716   2.430704   1.017507   1.640263   0.000000
     6  C    1.525620   2.103977   2.439563   3.324439   2.649418
     7  O    2.445338   2.996534   3.492040   4.333793   3.823283
     8  O    2.381436   2.703870   2.721264   3.670180   2.402727
     9  H    3.213192   3.543690   3.629379   4.606394   3.327918
    10  C    1.537256   2.160941   2.464395   2.649457   3.353998
    11  H    2.146719   2.489096   3.390844   3.666952   4.167460
    12  H    2.145710   3.055501   2.657535   2.945005   3.608000
    13  C    2.549712   2.772635   3.044366   2.672758   3.942438
    14  C    3.633631   4.046881   3.704824   3.167059   4.659903
    15  C    3.154379   2.844692   3.762428   3.269773   4.452613
    16  C    4.814392   5.033907   4.783702   4.045418   5.651137
    17  H    3.851200   4.513611   3.772340   3.396812   4.766735
    18  C    4.460170   4.124750   4.825444   4.123356   5.477797
    19  H    3.017339   2.378388   3.887852   3.581581   4.415323
    20  C    5.154967   5.069875   5.263707   4.459115   6.010350
    21  H    5.701507   6.021183   5.519310   4.771719   6.390560
    22  H    5.164612   4.628900   5.586856   4.892452   6.118921
    23  H    6.209097   6.073595   6.249591   5.388759   6.949822
                    6          7          8          9         10
     6  C    0.000000
     7  O    1.209897   0.000000
     8  O    1.357653   2.250771   0.000000
     9  H    1.879133   2.278164   0.975783   0.000000
    10  C    2.518609   2.835927   3.714174   4.388493   0.000000
    11  H    2.657347   2.576701   3.971981   4.487611   1.095827
    12  H    2.772081   2.912040   3.946071   4.519331   1.094467
    13  C    3.882522   4.326563   4.926190   5.712884   1.516753
    14  C    4.922882   5.324828   5.934135   6.715246   2.536585
    15  C    4.518722   5.035935   5.438176   6.259469   2.544293
    16  C    6.199435   6.654902   7.147282   7.976934   3.826404
    17  H    4.944455   5.250419   5.958238   6.667422   2.729451
    18  C    5.880278   6.423354   6.737298   7.593527   3.829494
    19  H    4.210410   4.721366   5.056282   5.834104   2.748860
    20  C    6.608397   7.128666   7.499307   8.366178   4.336650
    21  H    7.043084   7.469686   7.976422   8.792180   4.689231
    22  H    6.539082   7.100746   7.315252   8.167006   4.695157
    23  H    7.676894   8.211662   8.532488   9.414412   5.423336
                   11         12         13         14         15
    11  H    0.000000
    12  H    1.759318   0.000000
    13  C    2.156727   2.154774   0.000000
    14  C    3.243778   2.615910   1.400896   0.000000
    15  C    2.848471   3.439487   1.404070   2.405937   0.000000
    16  C    4.444038   4.010636   2.435845   1.396768   2.784092
    17  H    3.478370   2.348547   2.151961   1.087413   3.392637
    18  C    4.162129   4.589788   2.435881   2.783312   1.394463
    19  H    2.794786   3.802743   2.160196   3.395663   1.088112
    20  C    4.817340   4.822008   2.820095   2.419190   2.419604
    21  H    5.333154   4.678553   3.415281   2.153425   3.870998
    22  H    4.911478   5.548734   3.416329   3.870305   2.151864
    23  H    5.882315   5.888111   3.906801   3.405742   3.405034
                   16         17         18         19         20
    16  C    0.000000
    17  H    2.154094   0.000000
    18  C    2.411226   3.870718   0.000000
    19  H    3.872048   4.296500   2.148422   0.000000
    20  C    1.394738   3.402187   1.396993   3.400756   0.000000
    21  H    1.086942   2.474804   3.399283   4.958948   2.156328
    22  H    3.398466   4.957713   1.087032   2.467143   2.157583
    23  H    2.157814   4.301156   2.158849   4.297130   1.086706
                   21         22         23
    21  H    0.000000
    22  H    4.301054   0.000000
    23  H    2.489192   2.488644   0.000000
 Stoichiometry    C9H11NO2
 Framework group  C1[X(C9H11NO2)]
 Deg. of freedom    63
 Full point group                 C1      NOp   1
 Largest Abelian subgroup         C1      NOp   1
 Largest concise Abelian subgroup C1      NOp   1
                         Standard orientation:                         
 ---------------------------------------------------------------------
 Center     Atomic      Atomic             Coordinates (Angstroms)
 Number     Number       Type             X           Y           Z
 ---------------------------------------------------------------------
      1          6           0       -1.393447    0.229983    0.234200
      2          1           0       -1.203885    1.320806    0.187387
      3          7           0       -1.274445   -0.320183    1.588170
      4          1           0       -0.320719   -0.175721    1.915899
      5          1           0       -1.891915    0.182361    2.221811
      6          6           0       -2.828957    0.059200   -0.253305
      7          8           0       -3.173909   -0.340264   -1.342014
      8          8           0       -3.719454    0.464967    0.687753
      9          1           0       -4.604417    0.330066    0.299429
     10          6           0       -0.411497   -0.475739   -0.714951
     11          1           0       -0.634775   -0.151110   -1.737497
     12          1           0       -0.611598   -1.550902   -0.672019
     13          6           0        1.042684   -0.200802   -0.382826
     14          6           0        1.912830   -1.249009   -0.056301
     15          6           0        1.564234    1.101933   -0.430581
     16          6           0        3.259316   -1.006986    0.225410
     17          1           0        1.528627   -2.265664   -0.020694
     18          6           0        2.907141    1.349035   -0.147618
     19          1           0        0.915232    1.931724   -0.703036
     20          6           0        3.760868    0.293751    0.182708
     21          1           0        3.914697   -1.836886    0.476774
     22          1           0        3.289568    2.365603   -0.192083
     23          1           0        4.808174    0.485173    0.400511
 ---------------------------------------------------------------------
 Rotational constants (GHZ):           2.5359965           0.4250133           0.4235677
 Standard basis: 6-31G(d) (6D, 7F)
 There are   202 symmetry adapted cartesian basis functions of A   symmetry.
 There are   202 symmetry adapted basis functions of A   symmetry.
   202 basis functions,   380 primitive gaussians,   202 cartesian basis functions
    44 alpha electrons       44 beta electrons
       nuclear repulsion energy       664.9750227093 Hartrees.
 NAtoms=   23 NActive=   23 NUniq=   23 SFac= 1.00D+00 NAtFMM=   60 NAOKFM=F Big=F
 Integral buffers will be    131072 words long.
 Regular integral format.
 Two-electron integral symmetry is turned on.
 One-electron integrals computed using PRISM.
 NBasis=   202 RedAO= T EigKep=  4.66D-04  NBF=   202
 NBsUse=   202 1.00D-06 EigRej= -1.00D+00 NBFU=   202
 ExpMin= 1.61D-01 ExpMax= 5.48D+03 ExpMxC= 8.25D+02 IAcc=3 IRadAn=         5 AccDes= 0.00D+00
 Harris functional with IExCor=  402 and IRadAn=       5 diagonalized for initial guess.
 HarFok:  IExCor=  402 AccDes= 0.00D+00 IRadAn=         5 IDoV= 1 UseB2=F ITyADJ=14
 ICtDFT=  3500011 ScaDFX=  1.000000  1.000000  1.000000  1.000000
 FoFCou: FMM=F IPFlag=           0 FMFlag=      100000 FMFlg1=           0
         NFxFlg=           0 DoJE=T BraDBF=F KetDBF=T FulRan=T
         wScrn=  0.000000 ICntrl=       500 IOpCl=  0 I1Cent=   200000004 NGrid=           0
         NMat0=    1 NMatS0=      1 NMatT0=    0 NMatD0=    1 NMtDS0=    0 NMtDT0=    0
 Petite list used in FoFCou.
 Requested convergence on RMS density matrix=1.00D-08 within 128 cycles.
 Requested convergence on MAX density matrix=1.00D-06.
 Requested convergence on             energy=1.00D-06.
 No special actions if energy rises.
 Integral accuracy reduced to 1.0D-05 until final iterations.
 Initial convergence to 1.0D-05 achieved.  Increase integral accuracy.
 SCF Done:  E(RB3LYP) =  -554.785709379     A.U. after   14 cycles
            NFock= 14  Conv=0.53D-08     -V/T= 2.0094
 DoSCS=F DFT=T ScalE2(SS,OS)=  1.000000  1.000000
 ExpMin= 1.61D-01 ExpMax= 5.48D+03 ExpMxC= 8.25D+02 IAcc=3 IRadAn=         5 AccDes= 0.00D+00
 HarFok:  IExCor=  205 AccDes= 0.00D+00 IRadAn=         5 IDoV=-2 UseB2=F ITyADJ=14
 ICtDFT= 12500011 ScaDFX=  1.000000  1.000000  1.000000  1.000000
 Range of M.O.s used for correlation:    13   202
 NBasis=   202 NAE=    44 NBE=    44 NFC=    12 NFV=     0
 NROrb=    190 NOA=    32 NOB=    32 NVA=   158 NVB=   158
 Keep R1, R2, and R3 ints in memory in canonical form, NReq=656629584.
 Orbital symmetries:
       Occupied  (A) (A) (A) (A) (A) (A) (A) (A) (A) (A) (A) (A)
                 (A) (A) (A) (A) (A) (A) (A) (A) (A) (A) (A) (A)
                 (A) (A) (A) (A) (A) (A) (A) (A) (A) (A) (A) (A)
                 (A) (A) (A) (A) (A) (A) (A) (A)
       Virtual   (A) (A) (A) (A) (A) (A) (A) (A) (A) (A) (A) (A)
                 (A) (A) (A) (A) (A) (A) (A) (A) (A) (A) (A) (A)
                 (A) (A) (A) (A) (A) (A) (A) (A) (A) (A) (A) (A)
                 (A) (A) (A) (A) (A) (A) (A) (A) (A) (A) (A) (A)
                 (A) (A) (A) (A) (A) (A) (A) (A) (A) (A) (A) (A)
                 (A) (A) (A) (A) (A) (A) (A) (A) (A) (A) (A) (A)
                 (A) (A) (A) (A) (A) (A) (A) (A) (A) (A) (A) (A)
                 (A) (A) (A) (A) (A) (A) (A) (A) (A) (A) (A) (A)
                 (A) (A) (A) (A) (A) (A) (A) (A) (A) (A) (A) (A)
                 (A) (A) (A) (A) (A) (A) (A) (A) (A) (A) (A) (A)
                 (A) (A) (A) (A) (A) (A) (A) (A) (A) (A) (A) (A)
                 (A) (A) (A) (A) (A) (A) (A) (A) (A) (A) (A) (A)
                 (A) (A) (A) (A) (A) (A) (A) (A) (A) (A) (A) (A)
                 (A) (A)
    12 initial guesses have been made.
 Convergence on wavefunction:    0.001000000000000
 Iteration     1 Dimension    12 NMult     0 NNew     12
 CISAX will form    12 AO SS matrices at one time.
 New state      2 was old state      6
 Iteration     2 Dimension    18 NMult    12 NNew      6
 Iteration     3 Dimension    24 NMult    18 NNew      6
 Iteration     4 Dimension    30 NMult    24 NNew      6
 Iteration     5 Dimension    36 NMult    30 NNew      6
 Iteration     6 Dimension    38 NMult    36 NNew      2
 ***********************************************************************
 Excited states from <AA,BB:AA,BB> singles matrix:
 ***********************************************************************
 
 Ground to excited state transition densities written to RWF  633
 Ground to excited state transition electric dipole moments (Au):
       state          X           Y           Z        Dip. S.      Osc.
         1         0.1121      0.1056      0.0052      0.0238      0.0031
         2        -0.1024     -0.0332      0.0082      0.0117      0.0016
         3         0.2188      0.0549     -0.0171      0.0512      0.0072
 Ground to excited state transition velocity dipole moments (Au):
       state          X           Y           Z        Dip. S.      Osc.
         1        -0.0221     -0.0238     -0.0017      0.0011      0.0035
         2         0.0145      0.0088     -0.0004      0.0003      0.0010
         3        -0.0467     -0.0207      0.0020      0.0026      0.0083
 Ground to excited state transition magnetic dipole moments (Au):
       state          X           Y           Z
         1        -0.0348      0.0264     -0.2337
         2         0.2350      0.0148      0.0849
         3         0.2135      0.0502      0.1350
 Ground to excited state transition velocity quadrupole moments (Au):
       state          XX          YY          ZZ          XY          XZ          YZ
         1        -0.0482     -0.0540      0.0265     -0.0785      0.0379      0.0148
         2        -0.0952      0.0964     -0.0332     -0.0910     -0.0621     -0.0378
         3        -0.2362      0.0030      0.0072     -0.0103     -0.0320     -0.0397
 <0|del|b> * <b|rxdel|0> + <0|del|b> * <b|delr+rdel|0>
 Rotatory Strengths (R) in cgs (10**-40 erg-esu-cm/Gauss)
       state          XX          YY          ZZ    R(velocity)    E-M Angle
         1         1.4443      1.2624     -0.7803      0.6421       85.99
         2         1.2083      4.9208      6.2392      4.1227       34.55
         3        -2.4421    -13.1741    -20.5566    -12.0576      144.60
 1/2[<0|r|b>*<b|rxdel|0> + (<0|rxdel|b>*<b|r|0>)*]
 Rotatory Strengths (R) in cgs (10**-40 erg-esu-cm/Gauss)
       state          XX          YY          ZZ     R(length)
         1         2.7600     -1.9717      0.8664      0.5516
         2        17.0217      0.3481     -0.4931      5.6256
         3       -33.0379     -1.9485      1.6358    -11.1168
  1/2[<0|del|b>*<b|r|0> + (<0|r|b>*<b|del|0>)*] (Au)
       state          X           Y           Z        Dip. S.   Osc.(frdel)
         1        -0.0025     -0.0025     -0.0000      0.0050      0.0033
         2        -0.0015     -0.0003     -0.0000      0.0018      0.0012
         3        -0.0102     -0.0011     -0.0000      0.0114      0.0076

 Excitation energies and oscillator strengths:
 
 Excited State   1:      Singlet-A      5.4064 eV  229.33 nm  f=0.0031  <S**2>=0.000
      42 -> 45        -0.30943
      42 -> 46        -0.29206
      43 -> 45        -0.15304
      43 -> 46         0.23325
      43 -> 47        -0.16306
      44 -> 45         0.38542
      44 -> 46        -0.23519
 This state for optimization and/or second-order correction.
 Total Energy, E(TD-HF/TD-DFT) =  -554.587028341    
 Copying the excited state density for this state as the 1-particle RhoCI density.
 
 Excited State   2:      Singlet-A      5.4427 eV  227.80 nm  f=0.0016  <S**2>=0.000
      41 -> 47        -0.21917
      42 -> 45        -0.13095
      42 -> 46        -0.11195
      43 -> 45        -0.29611
      43 -> 46         0.17312
      43 -> 47         0.26969
      44 -> 45        -0.17531
      44 -> 47         0.43865
 
 Excited State   3:      Singlet-A      5.7151 eV  216.94 nm  f=0.0072  <S**2>=0.000
      41 -> 47        -0.10127
      42 -> 45         0.10927
      43 -> 45         0.26083
      43 -> 47         0.17725
      44 -> 45         0.47710
      44 -> 46         0.31753
      44 -> 47         0.18251
 SavETr:  write IOETrn=   770 NScale= 10 NData=  16 NLR=1 NState=    3 LETran=      64.

 **********************************************************************

            Population analysis using the SCF Density.

 **********************************************************************

 Orbital symmetries:
       Occupied  (A) (A) (A) (A) (A) (A) (A) (A) (A) (A) (A) (A)
                 (A) (A) (A) (A) (A) (A) (A) (A) (A) (A) (A) (A)
                 (A) (A) (A) (A) (A) (A) (A) (A) (A) (A) (A) (A)
                 (A) (A) (A) (A) (A) (A) (A) (A)
       Virtual   (A) (A) (A) (A) (A) (A) (A) (A) (A) (A) (A) (A)
                 (A) (A) (A) (A) (A) (A) (A) (A) (A) (A) (A) (A)
                 (A) (A) (A) (A) (A) (A) (A) (A) (A) (A) (A) (A)
                 (A) (A) (A) (A) (A) (A) (A) (A) (A) (A) (A) (A)
                 (A) (A) (A) (A) (A) (A) (A) (A) (A) (A) (A) (A)
                 (A) (A) (A) (A) (A) (A) (A) (A) (A) (A) (A) (A)
                 (A) (A) (A) (A) (A) (A) (A) (A) (A) (A) (A) (A)
                 (A) (A) (A) (A) (A) (A) (A) (A) (A) (A) (A) (A)
                 (A) (A) (A) (A) (A) (A) (A) (A) (A) (A) (A) (A)
                 (A) (A) (A) (A) (A) (A) (A) (A) (A) (A) (A) (A)
                 (A) (A) (A) (A) (A) (A) (A) (A) (A) (A) (A) (A)
                 (A) (A) (A) (A) (A) (A) (A) (A) (A) (A) (A) (A)
                 (A) (A) (A) (A) (A) (A) (A) (A) (A) (A) (A) (A)
                 (A) (A)
 The electronic state is 1-A.
 Alpha  occ. eigenvalues --  -19.20072 -19.14358 -14.31798 -10.32197 -10.23381
 Alpha  occ. eigenvalues --  -10.19793 -10.19172 -10.19064 -10.19008 -10.18977
 Alpha  occ. eigenvalues --  -10.18841 -10.18827  -1.10880  -1.01836  -0.89533
 Alpha  occ. eigenvalues --   -0.85344  -0.77716  -0.74390  -0.72679  -0.67124
 Alpha  occ. eigenvalues --   -0.60729  -0.59752  -0.56730  -0.51577  -0.50478
 Alpha  occ. eigenvalues --   -0.49341  -0.48572  -0.45963  -0.45218  -0.45028
 Alpha  occ. eigenvalues --   -0.42163  -0.41640  -0.41233  -0.39043  -0.38498
 Alpha  occ. eigenvalues --   -0.36917  -0.35208  -0.33852  -0.33688  -0.32230
 Alpha  occ. eigenvalues --   -0.28263  -0.25068  -0.24509  -0.23875
 Alpha virt. eigenvalues --   -0.00539  -0.00028   0.00686   0.06938   0.09110
 Alpha virt. eigenvalues --    0.10516   0.12067   0.13002   0.14570   0.16035
 Alpha virt. eigenvalues --    0.16172   0.16545   0.18683   0.19330   0.20427
 Alpha virt. eigenvalues --    0.22351   0.22743   0.25232   0.26614   0.30459
 Alpha virt. eigenvalues --    0.31660   0.32854   0.33905   0.35170   0.38660
 Alpha virt. eigenvalues --    0.46316   0.52166   0.52546   0.54344   0.54822
 Alpha virt. eigenvalues --    0.55352   0.56414   0.58200   0.58427   0.59457
 Alpha virt. eigenvalues --    0.59696   0.60882   0.61415   0.61774   0.62167
 Alpha virt. eigenvalues --    0.64861   0.65566   0.66673   0.69537   0.71071
 Alpha virt. eigenvalues --    0.71441   0.72148   0.76949   0.77807   0.80394
 Alpha virt. eigenvalues --    0.81621   0.82490   0.83494   0.83990   0.84074
 Alpha virt. eigenvalues --    0.85961   0.88757   0.89532   0.90461   0.90846
 Alpha virt. eigenvalues --    0.91425   0.92709   0.94238   0.95242   0.96740
 Alpha virt. eigenvalues --    0.98160   1.00117   1.00825   1.03345   1.07125
 Alpha virt. eigenvalues --    1.08992   1.11651   1.12339   1.13622   1.16720
 Alpha virt. eigenvalues --    1.18028   1.20240   1.25664   1.26546   1.30082
 Alpha virt. eigenvalues --    1.37584   1.40127   1.43306   1.43952   1.44898
 Alpha virt. eigenvalues --    1.48203   1.49119   1.50902   1.51630   1.55446
 Alpha virt. eigenvalues --    1.57671   1.63523   1.65244   1.68499   1.74232
 Alpha virt. eigenvalues --    1.75683   1.77780   1.79966   1.80992   1.81533
 Alpha virt. eigenvalues --    1.83150   1.87309   1.88945   1.90443   1.92410
 Alpha virt. eigenvalues --    1.94942   1.95873   1.97641   1.98992   2.00586
 Alpha virt. eigenvalues --    2.05427   2.05742   2.07409   2.13969   2.14341
 Alpha virt. eigenvalues --    2.14801   2.16550   2.20794   2.22495   2.26107
 Alpha virt. eigenvalues --    2.29374   2.30992   2.34473   2.36921   2.37449
 Alpha virt. eigenvalues --    2.40670   2.44504   2.52477   2.53557   2.57801
 Alpha virt. eigenvalues --    2.58666   2.60748   2.63286   2.65823   2.67600
 Alpha virt. eigenvalues --    2.72259   2.74559   2.75360   2.77684   2.79660
 Alpha virt. eigenvalues --    2.84983   2.92606   2.98752   3.05241   3.12437
 Alpha virt. eigenvalues --    3.40742   3.79830   3.84329   4.09001   4.11612
 Alpha virt. eigenvalues --    4.12164   4.15162   4.26277   4.32956   4.38598
 Alpha virt. eigenvalues --    4.43401   4.61274   4.70034
          Condensed to atoms (all electrons):
               1          2          3          4          5          6
     1  C    5.136135   0.348392   0.283580  -0.032323  -0.026381   0.295907
     2  H    0.348392   0.639735  -0.044244  -0.004102  -0.003531  -0.038950
     3  N    0.283580  -0.044244   6.981705   0.302094   0.302839  -0.040169
     4  H   -0.032323  -0.004102   0.302094   0.439824  -0.028465   0.005405
     5  H   -0.026381  -0.003531   0.302839  -0.028465   0.433590  -0.009540
     6  C    0.295907  -0.038950  -0.040169   0.005405  -0.009540   4.356926
     7  O   -0.080711   0.001307   0.001100  -0.000091   0.000083   0.572527
     8  O   -0.095296  -0.000025  -0.001176   0.000052   0.010638   0.283524
     9  H    0.011051  -0.000572  -0.000384   0.000033  -0.000277  -0.007480
    10  C    0.335000  -0.052080  -0.062132  -0.007766   0.006369  -0.028457
    11  H   -0.035430   0.001118   0.004636   0.000073  -0.000232  -0.003953
    12  H   -0.034216   0.006427   0.003218  -0.000617  -0.000075  -0.005771
    13  C   -0.033405  -0.007142  -0.003981   0.010890  -0.000009   0.004686
    14  C   -0.001744   0.000238   0.000278   0.002448  -0.000006  -0.000122
    15  C   -0.002961   0.003676  -0.001159   0.001431  -0.000022   0.000183
    16  C   -0.000161  -0.000001  -0.000010  -0.000005   0.000001   0.000001
    17  H    0.000177   0.000013   0.000099  -0.000001  -0.000001  -0.000011
    18  C    0.000164  -0.000075  -0.000033  -0.000112  -0.000000   0.000000
    19  H    0.000512   0.004962  -0.000011  -0.000073  -0.000006  -0.000178
    20  C    0.000012   0.000002   0.000009  -0.000077  -0.000000   0.000000
    21  H    0.000001   0.000000  -0.000000  -0.000002   0.000000  -0.000000
    22  H   -0.000000   0.000005   0.000000  -0.000000   0.000000  -0.000000
    23  H    0.000000  -0.000000  -0.000000  -0.000000  -0.000000   0.000000
               7          8          9         10         11         12
     1  C   -0.080711  -0.095296   0.011051   0.335000  -0.035430  -0.034216
     2  H    0.001307  -0.000025  -0.000572  -0.052080   0.001118   0.006427
     3  N    0.001100  -0.001176  -0.000384  -0.062132   0.004636   0.003218
     4  H   -0.000091   0.000052   0.000033  -0.007766   0.000073  -0.000617
     5  H    0.000083   0.010638  -0.000277   0.006369  -0.000232  -0.000075
     6  C    0.572527   0.283524  -0.007480  -0.028457  -0.003953  -0.005771
     7  O    8.028790  -0.083979   0.011609   0.002879   0.007349   0.002421
     8  O   -0.083979   8.246914   0.216819   0.002636   0.000156  -0.000011
     9  H    0.011609   0.216819   0.358335  -0.000263  -0.000018  -0.000018
    10  C    0.002879   0.002636  -0.000263   5.213991   0.353648   0.355356
    11  H    0.007349   0.000156  -0.000018   0.353648   0.559297  -0.026947
    12  H    0.002421  -0.000011  -0.000018   0.355356  -0.026947   0.562171
    13  C    0.000690  -0.000015   0.000001   0.333234  -0.030175  -0.033059
    14  C   -0.000006  -0.000000   0.000000  -0.043758   0.001209  -0.005082
    15  C    0.000002  -0.000002   0.000000  -0.067259  -0.004375   0.004858
    16  C   -0.000000  -0.000000   0.000000   0.006747  -0.000203   0.000230
    17  H    0.000001   0.000000  -0.000000  -0.010455   0.000066   0.007482
    18  C   -0.000000  -0.000000   0.000000   0.005868   0.000018  -0.000158
    19  H    0.000005   0.000002  -0.000000  -0.008227   0.002076   0.000044
    20  C    0.000000   0.000000  -0.000000   0.000376   0.000027   0.000003
    21  H   -0.000000   0.000000  -0.000000  -0.000174   0.000003  -0.000010
    22  H   -0.000000   0.000000  -0.000000  -0.000174  -0.000002   0.000003
    23  H    0.000000  -0.000000  -0.000000   0.000007  -0.000000  -0.000000
              13         14         15         16         17         18
     1  C   -0.033405  -0.001744  -0.002961  -0.000161   0.000177   0.000164
     2  H   -0.007142   0.000238   0.003676  -0.000001   0.000013  -0.000075
     3  N   -0.003981   0.000278  -0.001159  -0.000010   0.000099  -0.000033
     4  H    0.010890   0.002448   0.001431  -0.000005  -0.000001  -0.000112
     5  H   -0.000009  -0.000006  -0.000022   0.000001  -0.000001  -0.000000
     6  C    0.004686  -0.000122   0.000183   0.000001  -0.000011   0.000000
     7  O    0.000690  -0.000006   0.000002  -0.000000   0.000001  -0.000000
     8  O   -0.000015  -0.000000  -0.000002  -0.000000   0.000000  -0.000000
     9  H    0.000001   0.000000   0.000000   0.000000  -0.000000   0.000000
    10  C    0.333234  -0.043758  -0.067259   0.006747  -0.010455   0.005868
    11  H   -0.030175   0.001209  -0.004375  -0.000203   0.000066   0.000018
    12  H   -0.033059  -0.005082   0.004858   0.000230   0.007482  -0.000158
    13  C    4.677873   0.553715   0.530821  -0.021834  -0.040504  -0.017168
    14  C    0.553715   4.962639  -0.045047   0.517971   0.353814  -0.045214
    15  C    0.530821  -0.045047   4.992815  -0.046657   0.006497   0.527661
    16  C   -0.021834   0.517971  -0.046657   4.873369  -0.046550  -0.026964
    17  H   -0.040504   0.353814   0.006497  -0.046550   0.597181   0.000351
    18  C   -0.017168  -0.045214   0.527661  -0.026964   0.000351   4.861242
    19  H   -0.048161   0.005960   0.353692   0.000396  -0.000179  -0.043875
    20  C   -0.034437  -0.035939  -0.035917   0.552233   0.004744   0.548282
    21  H    0.003788  -0.039065   0.000804   0.356855  -0.005534   0.004609
    22  H    0.003568   0.000828  -0.040240   0.004605   0.000017   0.357171
    23  H    0.000688   0.004633   0.004764  -0.043082  -0.000176  -0.043018
              19         20         21         22         23
     1  C    0.000512   0.000012   0.000001  -0.000000   0.000000
     2  H    0.004962   0.000002   0.000000   0.000005  -0.000000
     3  N   -0.000011   0.000009  -0.000000   0.000000  -0.000000
     4  H   -0.000073  -0.000077  -0.000002  -0.000000  -0.000000
     5  H   -0.000006  -0.000000   0.000000   0.000000  -0.000000
     6  C   -0.000178   0.000000  -0.000000  -0.000000   0.000000
     7  O    0.000005   0.000000  -0.000000  -0.000000   0.000000
     8  O    0.000002   0.000000   0.000000   0.000000  -0.000000
     9  H   -0.000000  -0.000000  -0.000000  -0.000000  -0.000000
    10  C   -0.008227   0.000376  -0.000174  -0.000174   0.000007
    11  H    0.002076   0.000027   0.000003  -0.000002  -0.000000
    12  H    0.000044   0.000003  -0.000010   0.000003  -0.000000
    13  C   -0.048161  -0.034437   0.003788   0.003568   0.000688
    14  C    0.005960  -0.035939  -0.039065   0.000828   0.004633
    15  C    0.353692  -0.035917   0.000804  -0.040240   0.004764
    16  C    0.000396   0.552233   0.356855   0.004605  -0.043082
    17  H   -0.000179   0.004744  -0.005534   0.000017  -0.000176
    18  C   -0.043875   0.548282   0.004609   0.357171  -0.043018
    19  H    0.609079   0.004790   0.000018  -0.005670  -0.000183
    20  C    0.004790   4.854346  -0.043490  -0.042847   0.358953
    21  H    0.000018  -0.043490   0.596760  -0.000189  -0.005589
    22  H   -0.005670  -0.042847  -0.000189   0.598460  -0.005487
    23  H   -0.000183   0.358953  -0.005589  -0.005487   0.598684
 Mulliken charges:
               1
     1  C   -0.068303
     2  H    0.144846
     3  N   -0.726258
     4  H    0.311383
     5  H    0.315026
     6  C    0.615470
     7  O   -0.463976
     8  O   -0.580237
     9  H    0.411164
    10  C   -0.335366
    11  H    0.171658
    12  H    0.163755
    13  C    0.149938
    14  C   -0.187750
    15  C   -0.183565
    16  C   -0.126939
    17  H    0.132969
    18  C   -0.128749
    19  H    0.125029
    20  C   -0.131070
    21  H    0.131215
    22  H    0.129953
    23  H    0.129808
 Sum of Mulliken charges =  -0.00000
 Mulliken charges with hydrogens summed into heavy atoms:
               1
     1  C    0.076542
     3  N   -0.099849
     6  C    0.615470
     7  O   -0.463976
     8  O   -0.169072
    10  C    0.000047
    13  C    0.149938
    14  C   -0.054782
    15  C   -0.058536
    16  C    0.004276
    18  C    0.001204
    20  C   -0.001262
 Electronic spatial extent (au):  <R**2>=           2659.4782
 Charge=             -0.0000 electrons
 Dipole moment (field-independent basis, Debye):
    X=              0.4853    Y=              1.6457    Z=              1.4362  Tot=              2.2375
 Quadrupole moment (field-independent basis, Debye-Ang):
   XX=            -60.9725   YY=            -67.2115   ZZ=            -74.0380
   XY=             -3.6861   XZ=             -2.4976   YZ=              0.0495
 Traceless Quadrupole moment (field-independent basis, Debye-Ang):
   XX=              6.4349   YY=              0.1958   ZZ=             -6.6307
   XY=             -3.6861   XZ=             -2.4976   YZ=              0.0495
 Octapole moment (field-independent basis, Debye-Ang**2):
  XXX=            -63.2481  YYY=              1.3740  ZZZ=             13.3512  XYY=             -0.5121
  XXY=             10.7394  XXZ=             23.0385  XZZ=             -6.4316  YZZ=              5.7796
  YYZ=             -3.0749  XYZ=             -0.5927
 Hexadecapole moment (field-independent basis, Debye-Ang**3):
 XXXX=          -2248.0076 YYYY=           -339.1933 ZZZZ=           -293.6635 XXXY=            -34.9385
 XXXZ=            -24.3661 YYYX=             -2.7812 YYYZ=              0.8744 ZZZX=            -20.2126
 ZZZY=              9.0786 XXYY=           -495.4076 XXZZ=           -574.5488 YYZZ=           -120.8643
 XXYZ=            -16.6024 YYXZ=              6.8876 ZZXY=            -13.1137
 N-N= 6.649750227093D+02 E-N=-2.621862265441D+03  KE= 5.496240349101D+02
 Unable to Open any file for archive entry.
 1\1\GINC-CCC099\SP\RB3LYP TD-FC\6-31G(d)\C9H11N1O2\ROOT\21-Feb-2025\0\
 \# td=(nstat=3) b3lyp/6-31g(d)\\phe | No.4\\0,1\C,0,-1.393447,-0.22998
 3,-0.2342\H,0,-1.203885,-1.320806,-0.187387\N,0,-1.274445,0.320183,-1.
 58817\H,0,-0.320719,0.175721,-1.915899\H,0,-1.891915,-0.182361,-2.2218
 11\C,0,-2.828957,-0.0592,0.253305\O,0,-3.173909,0.340264,1.342014\O,0,
 -3.719454,-0.464967,-0.687753\H,0,-4.604417,-0.330066,-0.299429\C,0,-0
 .411497,0.475739,0.714951\H,0,-0.634775,0.15111,1.737497\H,0,-0.611598
 ,1.550902,0.672019\C,0,1.042684,0.200802,0.382826\C,0,1.91283,1.249009
 ,0.056301\C,0,1.564234,-1.101933,0.430581\C,0,3.259316,1.006986,-0.225
 41\H,0,1.528627,2.265664,0.020694\C,0,2.907141,-1.349035,0.147618\H,0,
 0.915232,-1.931724,0.703036\C,0,3.760868,-0.293751,-0.182708\H,0,3.914
 697,1.836886,-0.476774\H,0,3.289568,-2.365603,0.192083\H,0,4.808174,-0
 .485173,-0.400511\\Version=ES64L-G16RevC.02\State=1-A\HF=-554.7857094\
 RMSD=5.340e-09\PG=C01 [X(C9H11N1O2)]\\@
 The archive entry for this job was punched.


 THE PROMISED LAND ALWAYS LIES ON THE OTHER SIDE OF A WILDERNESS.

                         -- HAVELOCK ELLIS
 Job cpu time:       0 days  0 hours 14 minutes  4.1 seconds.
 Elapsed time:       0 days  0 hours  1 minutes 51.1 seconds.
 File lengths (MBytes):  RWF=    272 Int=      0 D2E=      0 Chk=      8 Scr=      1
 Normal termination of Gaussian 16 at Fri Feb 21 15:16:03 2025.
