 Entering Gaussian System, Link 0=/apl/gaussian/16c02/g16/._.g16
 Initial command:
 /apl/gaussian/16c02/g16/l1.exe "/lwork/users/ux8/8287060.ccpbs1/gaussian/Gau-3043829.inp" -scrdir="/lwork/users/ux8/8287060.ccpbs1/gaussian/"
 Default CPUs for threads: 80,81,82,83,84,85,86,87
 Default is to use a total of   8 processors:
                                8 via shared-memory
                                1 via Linda
 Entering Link 1 = /apl/gaussian/16c02/g16/l1.exe PID=   3043830.
  
 Copyright (c) 1988-2021, Gaussian, Inc.  All Rights Reserved.
  
 This is part of the Gaussian(R) 16 program.  It is based on
 the Gaussian(R) 09 system (copyright 2009, Gaussian, Inc.),
 the Gaussian(R) 03 system (copyright 2003, Gaussian, Inc.),
 the Gaussian(R) 98 system (copyright 1998, Gaussian, Inc.),
 the Gaussian(R) 94 system (copyright 1995, Gaussian, Inc.),
 the Gaussian 92(TM) system (copyright 1992, Gaussian, Inc.),
 the Gaussian 90(TM) system (copyright 1990, Gaussian, Inc.),
 the Gaussian 88(TM) system (copyright 1988, Gaussian, Inc.),
 the Gaussian 86(TM) system (copyright 1986, Carnegie Mellon
 University), and the Gaussian 82(TM) system (copyright 1983,
 Carnegie Mellon University). Gaussian is a federally registered
 trademark of Gaussian, Inc.
  
 This software contains proprietary and confidential information,
 including trade secrets, belonging to Gaussian, Inc.
  
 This software is provided under written license and may be
 used, copied, transmitted, or stored only in accord with that
 written license.
  
 The following legend is applicable only to US Government
 contracts under FAR:
  
                    RESTRICTED RIGHTS LEGEND
  
 Use, reproduction and disclosure by the US Government is
 subject to restrictions as set forth in subparagraphs (a)
 and (c) of the Commercial Computer Software - Restricted
 Rights clause in FAR 52.227-19.
  
 Gaussian, Inc.
 340 Quinnipiac St., Bldg. 40, Wallingford CT 06492
  
  
 ---------------------------------------------------------------
 Warning -- This program may not be used in any manner that
 competes with the business of Gaussian, Inc. or will provide
 assistance to any competitor of Gaussian, Inc.  The licensee
 of this program is prohibited from giving any competitor of
 Gaussian, Inc. access to this program.  By using this program,
 the user acknowledges that Gaussian, Inc. is engaged in the
 business of creating and licensing software in the field of
 computational chemistry and represents and warrants to the
 licensee that it is not a competitor of Gaussian, Inc. and that
 it will not use this program in any manner prohibited above.
 ---------------------------------------------------------------
  

 Cite this work as:
 Gaussian 16, Revision C.02,
 M. J. Frisch, G. W. Trucks, H. B. Schlegel, G. E. Scuseria, 
 M. A. Robb, J. R. Cheeseman, G. Scalmani, V. Barone, 
 G. A. Petersson, H. Nakatsuji, X. Li, M. Caricato, A. V. Marenich, 
 J. Bloino, B. G. Janesko, R. Gomperts, B. Mennucci, H. P. Hratchian, 
 J. V. Ortiz, A. F. Izmaylov, J. L. Sonnenberg, D. Williams-Young, 
 F. Ding, F. Lipparini, F. Egidi, J. Goings, B. Peng, A. Petrone, 
 T. Henderson, D. Ranasinghe, V. G. Zakrzewski, J. Gao, N. Rega, 
 G. Zheng, W. Liang, M. Hada, M. Ehara, K. Toyota, R. Fukuda, 
 J. Hasegawa, M. Ishida, T. Nakajima, Y. Honda, O. Kitao, H. Nakai, 
 T. Vreven, K. Throssell, J. A. Montgomery, Jr., J. E. Peralta, 
 F. Ogliaro, M. J. Bearpark, J. J. Heyd, E. N. Brothers, K. N. Kudin, 
 V. N. Staroverov, T. A. Keith, R. Kobayashi, J. Normand, 
 K. Raghavachari, A. P. Rendell, J. C. Burant, S. S. Iyengar, 
 J. Tomasi, M. Cossi, J. M. Millam, M. Klene, C. Adamo, R. Cammi, 
 J. W. Ochterski, R. L. Martin, K. Morokuma, O. Farkas, 
 J. B. Foresman, and D. J. Fox, Gaussian, Inc., Wallingford CT, 2019.
 
 ******************************************
 Gaussian 16:  ES64L-G16RevC.02  7-Dec-2021
                21-Feb-2025 
 ******************************************
 %chk=phe.001.tddft.chk
 %mem=9600MB
 SetSPE:  set environment variable "OMP_PROC_BIND" = "true"
 SetSPE:  set environment variable "OMP_PLACES" = "{80},{81},{82},{83},{84},{85},{86},{87}"
 -----------------------------
 # td=(nstat=3) b3lyp/6-31g(d)
 -----------------------------
 1/38=1,172=1/1;
 2/12=2,17=6,18=5,40=1/2;
 3/5=1,6=6,7=1,11=9,25=1,30=1,74=-5/1,2,3,8;
 4//1;
 5/5=2,38=5/2;
 8/6=1,10=2,108=3/1;
 9/41=3,42=1,70=2/14;
 6/7=2,8=2,9=2,10=2/1;
 99/5=1,9=1/99;
 ----------
 phe | No.1
 ----------
 Symbolic Z-matrix:
 Charge =  0 Multiplicity = 1
 C                    -1.3726    0.09698  -0.31862 
 H                    -1.16187  -0.42137  -1.27583 
 N                    -1.23826   1.55354  -0.40979 
 H                    -0.29789   1.7752   -0.73194 
 H                    -1.88811   1.91542  -1.10414 
 C                    -2.81791  -0.26292   0.01322 
 O                    -3.18146  -1.10563   0.80153 
 O                    -3.69308   0.45401  -0.73782 
 H                    -4.58392   0.155    -0.47478 
 C                    -0.42006  -0.4755    0.74928 
 H                    -0.6478   -1.53855   0.87223 
 H                    -0.64996   0.01662   1.70021 
 C                     1.03918  -0.28543   0.39341 
 C                     1.73724   0.86475   0.79078 
 C                     1.71991  -1.24508  -0.36987 
 C                     3.07438   1.05117   0.43408 
 H                     1.22615   1.61453   1.38993 
 C                     3.05594  -1.06273  -0.728 
 H                     1.19801  -2.14855  -0.6789 
 C                     3.73805   0.08799  -0.3273 
 H                     3.59849   1.94713   0.75683 
 H                     3.56617  -1.82217  -1.31496 
 H                     4.78004   0.22954  -0.60159 
 
                          Input orientation:                          
 ---------------------------------------------------------------------
 Center     Atomic      Atomic             Coordinates (Angstroms)
 Number     Number       Type             X           Y           Z
 ---------------------------------------------------------------------
      1          6           0       -1.372598    0.096984   -0.318620
      2          1           0       -1.161869   -0.421369   -1.275825
      3          7           0       -1.238261    1.553535   -0.409790
      4          1           0       -0.297890    1.775204   -0.731944
      5          1           0       -1.888110    1.915416   -1.104135
      6          6           0       -2.817905   -0.262924    0.013217
      7          8           0       -3.181458   -1.105630    0.801528
      8          8           0       -3.693083    0.454014   -0.737824
      9          1           0       -4.583921    0.154995   -0.474784
     10          6           0       -0.420064   -0.475500    0.749283
     11          1           0       -0.647804   -1.538552    0.872231
     12          1           0       -0.649957    0.016622    1.700212
     13          6           0        1.039184   -0.285425    0.393411
     14          6           0        1.737239    0.864753    0.790778
     15          6           0        1.719912   -1.245081   -0.369870
     16          6           0        3.074379    1.051166    0.434077
     17          1           0        1.226153    1.614530    1.389930
     18          6           0        3.055940   -1.062729   -0.728002
     19          1           0        1.198010   -2.148550   -0.678899
     20          6           0        3.738053    0.087987   -0.327303
     21          1           0        3.598490    1.947134    0.756833
     22          1           0        3.566171   -1.822174   -1.314957
     23          1           0        4.780039    0.229542   -0.601586
 ---------------------------------------------------------------------
                    Distance matrix (angstroms):
                    1          2          3          4          5
     1  C    0.000000
     2  H    1.108755   0.000000
     3  N    1.465571   2.157799   0.000000
     4  H    2.035253   2.422230   1.018439   0.000000
     5  H    2.046822   2.453053   1.017535   1.639203   0.000000
     6  C    1.525963   2.104564   2.444122   3.325614   2.618809
     7  O    2.443969   2.976970   3.509197   4.354963   3.798818
     8  O    2.384922   2.731810   2.709742   3.643201   2.351129
     9  H    3.215641   3.561503   3.626786   4.589256   3.280634
    10  C    1.541258   2.157375   2.475859   2.697152   3.362558
    11  H    2.149053   2.475178   3.399003   3.698215   4.168246
    12  H    2.145775   3.051342   2.675876   3.021911   3.605940
    13  C    2.543603   2.765766   3.035401   2.701922   3.956690
    14  C    3.389885   3.785470   3.281674   2.699880   4.223475
    15  C    3.371555   3.131121   4.072423   3.650307   4.852392
    16  C    4.610056   4.799783   4.423048   3.640884   5.266813
    17  H    3.460577   4.117497   3.052220   2.617417   4.001191
    18  C    4.596137   4.301321   5.038478   4.393410   5.783983
    19  H    3.432237   2.984712   4.439963   4.199569   5.120623
    20  C    5.110666   5.016809   5.188288   4.393094   5.966295
    21  H    5.412150   5.692321   4.991001   4.174661   5.793702
    22  H    5.391409   4.931343   5.941154   5.311497   6.615376
    23  H    6.160567   6.015360   6.165199   5.309560   6.896299
                    6          7          8          9         10
     6  C    0.000000
     7  O    1.209859   0.000000
     8  O    1.357939   2.250301   0.000000
     9  H    1.879259   2.277071   0.975805   0.000000
    10  C    2.517265   2.832859   3.713238   4.385609   0.000000
    11  H    2.659788   2.571347   3.979487   4.491722   1.094103
    12  H    2.761177   2.911285   3.923767   4.497313   1.095126
    13  C    3.875847   4.318925   4.921465   5.706754   1.513994
    14  C    4.756637   5.298689   5.656300   6.485558   2.540070
    15  C    4.658666   5.041334   5.685317   6.458292   2.534612
    16  C    6.051691   6.627389   6.894091   7.763936   3.826382
    17  H    4.666324   5.212727   5.483887   6.274102   2.736546
    18  C    5.974207   6.422339   6.917363   7.740442   3.822278
    19  H    4.490232   4.739102   5.540722   6.227255   2.730744
    20  C    6.574167   7.111864   7.451462   8.323550   4.332031
    21  H    6.826965   7.435661   7.591472   8.466433   4.692333
    22  H    6.704605   7.107984   7.629606   8.428469   4.686650
    23  H    7.638669   8.193708   8.477190   9.365115   5.418764
                   11         12         13         14         15
    11  H    0.000000
    12  H    1.761852   0.000000
    13  C    2.155348   2.156886   0.000000
    14  C    3.386878   2.691673   1.402887   0.000000
    15  C    2.689799   3.390194   1.402472   2.408070   0.000000
    16  C    4.555575   4.067439   2.435190   1.396399   2.784540
    17  H    3.704275   2.483822   2.153564   1.087363   3.393828
    18  C    4.062619   4.560142   2.434969   2.785831   1.395164
    19  H    2.486992   3.709868   2.155530   3.395690   1.088181
    20  C    4.829105   4.834309   2.818290   2.420068   2.419044
    21  H    5.494937   4.760897   3.415617   2.153359   3.871531
    22  H    4.756240   5.499832   3.415521   3.872814   2.152881
    23  H    5.895742   5.901565   3.905023   3.405995   3.404788
                   16         17         18         19         20
    16  C    0.000000
    17  H    2.155684   0.000000
    18  C    2.412327   3.873173   0.000000
    19  H    3.872681   4.294370   2.152515   0.000000
    20  C    1.395663   3.404242   1.396419   3.402578   0.000000
    21  H    1.087025   2.477785   3.399760   4.959663   2.156677
    22  H    3.399568   4.960144   1.087018   2.473717   2.157248
    23  H    2.157994   4.302840   2.158347   4.300259   1.086740
                   21         22         23
    21  H    0.000000
    22  H    4.301284   0.000000
    23  H    2.488269   2.488355   0.000000
 Stoichiometry    C9H11NO2
 Framework group  C1[X(C9H11NO2)]
 Deg. of freedom    63
 Full point group                 C1      NOp   1
 Largest Abelian subgroup         C1      NOp   1
 Largest concise Abelian subgroup C1      NOp   1
                         Standard orientation:                         
 ---------------------------------------------------------------------
 Center     Atomic      Atomic             Coordinates (Angstroms)
 Number     Number       Type             X           Y           Z
 ---------------------------------------------------------------------
      1          6           0       -1.372598    0.096984   -0.318620
      2          1           0       -1.161869   -0.421369   -1.275825
      3          7           0       -1.238261    1.553535   -0.409790
      4          1           0       -0.297890    1.775204   -0.731944
      5          1           0       -1.888110    1.915416   -1.104135
      6          6           0       -2.817905   -0.262924    0.013217
      7          8           0       -3.181458   -1.105630    0.801528
      8          8           0       -3.693083    0.454014   -0.737824
      9          1           0       -4.583921    0.154995   -0.474784
     10          6           0       -0.420064   -0.475500    0.749283
     11          1           0       -0.647804   -1.538552    0.872231
     12          1           0       -0.649957    0.016622    1.700212
     13          6           0        1.039184   -0.285425    0.393411
     14          6           0        1.737239    0.864753    0.790778
     15          6           0        1.719912   -1.245081   -0.369870
     16          6           0        3.074379    1.051166    0.434077
     17          1           0        1.226153    1.614530    1.389930
     18          6           0        3.055940   -1.062729   -0.728002
     19          1           0        1.198010   -2.148550   -0.678899
     20          6           0        3.738053    0.087987   -0.327303
     21          1           0        3.598490    1.947134    0.756833
     22          1           0        3.566171   -1.822174   -1.314957
     23          1           0        4.780039    0.229542   -0.601586
 ---------------------------------------------------------------------
 Rotational constants (GHZ):           2.4981579           0.4430753           0.4149363
 Standard basis: 6-31G(d) (6D, 7F)
 There are   202 symmetry adapted cartesian basis functions of A   symmetry.
 There are   202 symmetry adapted basis functions of A   symmetry.
   202 basis functions,   380 primitive gaussians,   202 cartesian basis functions
    44 alpha electrons       44 beta electrons
       nuclear repulsion energy       666.0529238994 Hartrees.
 NAtoms=   23 NActive=   23 NUniq=   23 SFac= 1.00D+00 NAtFMM=   60 NAOKFM=F Big=F
 Integral buffers will be    131072 words long.
 Regular integral format.
 Two-electron integral symmetry is turned on.
 One-electron integrals computed using PRISM.
 NBasis=   202 RedAO= T EigKep=  4.67D-04  NBF=   202
 NBsUse=   202 1.00D-06 EigRej= -1.00D+00 NBFU=   202
 ExpMin= 1.61D-01 ExpMax= 5.48D+03 ExpMxC= 8.25D+02 IAcc=3 IRadAn=         5 AccDes= 0.00D+00
 Harris functional with IExCor=  402 and IRadAn=       5 diagonalized for initial guess.
 HarFok:  IExCor=  402 AccDes= 0.00D+00 IRadAn=         5 IDoV= 1 UseB2=F ITyADJ=14
 ICtDFT=  3500011 ScaDFX=  1.000000  1.000000  1.000000  1.000000
 FoFCou: FMM=F IPFlag=           0 FMFlag=      100000 FMFlg1=           0
         NFxFlg=           0 DoJE=T BraDBF=F KetDBF=T FulRan=T
         wScrn=  0.000000 ICntrl=       500 IOpCl=  0 I1Cent=   200000004 NGrid=           0
         NMat0=    1 NMatS0=      1 NMatT0=    0 NMatD0=    1 NMtDS0=    0 NMtDT0=    0
 Petite list used in FoFCou.
 Requested convergence on RMS density matrix=1.00D-08 within 128 cycles.
 Requested convergence on MAX density matrix=1.00D-06.
 Requested convergence on             energy=1.00D-06.
 No special actions if energy rises.
 Integral accuracy reduced to 1.0D-05 until final iterations.
 Initial convergence to 1.0D-05 achieved.  Increase integral accuracy.
 SCF Done:  E(RB3LYP) =  -554.786630156     A.U. after   14 cycles
            NFock= 14  Conv=0.44D-08     -V/T= 2.0094
 DoSCS=F DFT=T ScalE2(SS,OS)=  1.000000  1.000000
 ExpMin= 1.61D-01 ExpMax= 5.48D+03 ExpMxC= 8.25D+02 IAcc=3 IRadAn=         5 AccDes= 0.00D+00
 HarFok:  IExCor=  205 AccDes= 0.00D+00 IRadAn=         5 IDoV=-2 UseB2=F ITyADJ=14
 ICtDFT= 12500011 ScaDFX=  1.000000  1.000000  1.000000  1.000000
 Range of M.O.s used for correlation:    13   202
 NBasis=   202 NAE=    44 NBE=    44 NFC=    12 NFV=     0
 NROrb=    190 NOA=    32 NOB=    32 NVA=   158 NVB=   158
 Keep R1, R2, and R3 ints in memory in canonical form, NReq=656629584.
 Orbital symmetries:
       Occupied  (A) (A) (A) (A) (A) (A) (A) (A) (A) (A) (A) (A)
                 (A) (A) (A) (A) (A) (A) (A) (A) (A) (A) (A) (A)
                 (A) (A) (A) (A) (A) (A) (A) (A) (A) (A) (A) (A)
                 (A) (A) (A) (A) (A) (A) (A) (A)
       Virtual   (A) (A) (A) (A) (A) (A) (A) (A) (A) (A) (A) (A)
                 (A) (A) (A) (A) (A) (A) (A) (A) (A) (A) (A) (A)
                 (A) (A) (A) (A) (A) (A) (A) (A) (A) (A) (A) (A)
                 (A) (A) (A) (A) (A) (A) (A) (A) (A) (A) (A) (A)
                 (A) (A) (A) (A) (A) (A) (A) (A) (A) (A) (A) (A)
                 (A) (A) (A) (A) (A) (A) (A) (A) (A) (A) (A) (A)
                 (A) (A) (A) (A) (A) (A) (A) (A) (A) (A) (A) (A)
                 (A) (A) (A) (A) (A) (A) (A) (A) (A) (A) (A) (A)
                 (A) (A) (A) (A) (A) (A) (A) (A) (A) (A) (A) (A)
                 (A) (A) (A) (A) (A) (A) (A) (A) (A) (A) (A) (A)
                 (A) (A) (A) (A) (A) (A) (A) (A) (A) (A) (A) (A)
                 (A) (A) (A) (A) (A) (A) (A) (A) (A) (A) (A) (A)
                 (A) (A) (A) (A) (A) (A) (A) (A) (A) (A) (A) (A)
                 (A) (A)
    12 initial guesses have been made.
 Convergence on wavefunction:    0.001000000000000
 Iteration     1 Dimension    12 NMult     0 NNew     12
 CISAX will form    12 AO SS matrices at one time.
 New state      2 was old state      4
 New state      3 was old state      2
 Iteration     2 Dimension    18 NMult    12 NNew      6
 Iteration     3 Dimension    24 NMult    18 NNew      6
 Iteration     4 Dimension    30 NMult    24 NNew      6
 Iteration     5 Dimension    36 NMult    30 NNew      6
 Iteration     6 Dimension    38 NMult    36 NNew      2
 ***********************************************************************
 Excited states from <AA,BB:AA,BB> singles matrix:
 ***********************************************************************
 
 Ground to excited state transition densities written to RWF  633
 Ground to excited state transition electric dipole moments (Au):
       state          X           Y           Z        Dip. S.      Osc.
         1         0.0425     -0.0755     -0.0380      0.0089      0.0012
         2         0.1295     -0.0104     -0.0670      0.0214      0.0029
         3         0.2854     -0.0143     -0.0054      0.0817      0.0115
 Ground to excited state transition velocity dipole moments (Au):
       state          X           Y           Z        Dip. S.      Osc.
         1        -0.0088      0.0155      0.0097      0.0004      0.0014
         2        -0.0184      0.0020      0.0165      0.0006      0.0020
         3        -0.0580      0.0016      0.0017      0.0034      0.0106
 Ground to excited state transition magnetic dipole moments (Au):
       state          X           Y           Z
         1         0.0560     -0.0778      0.1709
         2        -0.2647     -0.1900      0.0567
         3         0.0800     -0.0377     -0.1494
 Ground to excited state transition velocity quadrupole moments (Au):
       state          XX          YY          ZZ          XY          XZ          YZ
         1        -0.0321      0.0091     -0.0160      0.0732      0.0424     -0.0029
         2         0.1488     -0.0223     -0.0594      0.0424     -0.0807     -0.0925
         3        -0.3217      0.0332      0.0131     -0.0672     -0.0067     -0.0208
 <0|del|b> * <b|rxdel|0> + <0|del|b> * <b|delr+rdel|0>
 Rotatory Strengths (R) in cgs (10**-40 erg-esu-cm/Gauss)
       state          XX          YY          ZZ    R(velocity)    E-M Angle
         1         0.8973      0.8559     -1.9014     -0.0494       90.00
         2         2.4709     11.8950      4.5880      6.3180       48.57
         3        -0.6985     -5.9599     -9.8784     -5.5123      119.45
 1/2[<0|r|b>*<b|rxdel|0> + (<0|rxdel|b>*<b|r|0>)*]
 Rotatory Strengths (R) in cgs (10**-40 erg-esu-cm/Gauss)
       state          XX          YY          ZZ     R(length)
         1        -1.6835     -4.1552      4.5866     -0.4174
         2        24.2510     -1.3975      2.6853      8.5129
         3       -16.1418     -0.3811     -0.5673     -5.6967
  1/2[<0|del|b>*<b|r|0> + (<0|r|b>*<b|del|0>)*] (Au)
       state          X           Y           Z        Dip. S.   Osc.(frdel)
         1        -0.0004     -0.0012     -0.0004      0.0019      0.0013
         2        -0.0024     -0.0000     -0.0011      0.0035      0.0023
         3        -0.0165     -0.0000     -0.0000      0.0166      0.0110

 Excitation energies and oscillator strengths:
 
 Excited State   1:      Singlet-A      5.4113 eV  229.12 nm  f=0.0012  <S**2>=0.000
      42 -> 45         0.28997
      42 -> 46         0.32760
      43 -> 45        -0.17846
      43 -> 46         0.29745
      44 -> 45         0.38748
      44 -> 46        -0.18052
 This state for optimization and/or second-order correction.
 Total Energy, E(TD-HF/TD-DFT) =  -554.587768720    
 Copying the excited state density for this state as the 1-particle RhoCI density.
 
 Excited State   2:      Singlet-A      5.5001 eV  225.42 nm  f=0.0029  <S**2>=0.000
      41 -> 47         0.26495
      43 -> 47         0.39286
      44 -> 45         0.10542
      44 -> 47         0.48842
 
 Excited State   3:      Singlet-A      5.7607 eV  215.22 nm  f=0.0115  <S**2>=0.000
      42 -> 45        -0.11822
      43 -> 45         0.11998
      43 -> 46         0.27136
      44 -> 45         0.26632
      44 -> 46         0.56406
 SavETr:  write IOETrn=   770 NScale= 10 NData=  16 NLR=1 NState=    3 LETran=      64.

 **********************************************************************

            Population analysis using the SCF Density.

 **********************************************************************

 Orbital symmetries:
       Occupied  (A) (A) (A) (A) (A) (A) (A) (A) (A) (A) (A) (A)
                 (A) (A) (A) (A) (A) (A) (A) (A) (A) (A) (A) (A)
                 (A) (A) (A) (A) (A) (A) (A) (A) (A) (A) (A) (A)
                 (A) (A) (A) (A) (A) (A) (A) (A)
       Virtual   (A) (A) (A) (A) (A) (A) (A) (A) (A) (A) (A) (A)
                 (A) (A) (A) (A) (A) (A) (A) (A) (A) (A) (A) (A)
                 (A) (A) (A) (A) (A) (A) (A) (A) (A) (A) (A) (A)
                 (A) (A) (A) (A) (A) (A) (A) (A) (A) (A) (A) (A)
                 (A) (A) (A) (A) (A) (A) (A) (A) (A) (A) (A) (A)
                 (A) (A) (A) (A) (A) (A) (A) (A) (A) (A) (A) (A)
                 (A) (A) (A) (A) (A) (A) (A) (A) (A) (A) (A) (A)
                 (A) (A) (A) (A) (A) (A) (A) (A) (A) (A) (A) (A)
                 (A) (A) (A) (A) (A) (A) (A) (A) (A) (A) (A) (A)
                 (A) (A) (A) (A) (A) (A) (A) (A) (A) (A) (A) (A)
                 (A) (A) (A) (A) (A) (A) (A) (A) (A) (A) (A) (A)
                 (A) (A) (A) (A) (A) (A) (A) (A) (A) (A) (A) (A)
                 (A) (A) (A) (A) (A) (A) (A) (A) (A) (A) (A) (A)
                 (A) (A)
 The electronic state is 1-A.
 Alpha  occ. eigenvalues --  -19.20170 -19.14410 -14.31823 -10.32279 -10.23418
 Alpha  occ. eigenvalues --  -10.19681 -10.19087 -10.19058 -10.18944 -10.18890
 Alpha  occ. eigenvalues --  -10.18762 -10.18742  -1.10962  -1.01905  -0.89572
 Alpha  occ. eigenvalues --   -0.85274  -0.77677  -0.74321  -0.72691  -0.67043
 Alpha  occ. eigenvalues --   -0.60467  -0.59865  -0.56849  -0.51499  -0.50421
 Alpha  occ. eigenvalues --   -0.49393  -0.48673  -0.46107  -0.45256  -0.44553
 Alpha  occ. eigenvalues --   -0.42270  -0.41809  -0.41117  -0.39065  -0.38293
 Alpha  occ. eigenvalues --   -0.36910  -0.35218  -0.33750  -0.33640  -0.32305
 Alpha  occ. eigenvalues --   -0.28199  -0.25056  -0.24583  -0.23889
 Alpha virt. eigenvalues --   -0.00268  -0.00178   0.00505   0.06881   0.09309
 Alpha virt. eigenvalues --    0.10903   0.12611   0.13273   0.14715   0.15880
 Alpha virt. eigenvalues --    0.16470   0.16678   0.18258   0.19162   0.19536
 Alpha virt. eigenvalues --    0.22270   0.22895   0.25493   0.25999   0.30623
 Alpha virt. eigenvalues --    0.31637   0.33118   0.33834   0.34641   0.38535
 Alpha virt. eigenvalues --    0.46029   0.52382   0.52908   0.54267   0.54905
 Alpha virt. eigenvalues --    0.55351   0.55821   0.57356   0.59378   0.59595
 Alpha virt. eigenvalues --    0.59831   0.60672   0.61243   0.61611   0.62232
 Alpha virt. eigenvalues --    0.64996   0.65842   0.66453   0.69330   0.70710
 Alpha virt. eigenvalues --    0.71900   0.72902   0.75771   0.77715   0.80608
 Alpha virt. eigenvalues --    0.82496   0.83061   0.83780   0.83965   0.84240
 Alpha virt. eigenvalues --    0.85610   0.87400   0.88979   0.90248   0.91239
 Alpha virt. eigenvalues --    0.92530   0.93753   0.94249   0.95704   0.96270
 Alpha virt. eigenvalues --    0.98104   0.99916   1.01657   1.03030   1.07083
 Alpha virt. eigenvalues --    1.10557   1.11447   1.12606   1.13330   1.17070
 Alpha virt. eigenvalues --    1.18087   1.21744   1.25345   1.27464   1.30930
 Alpha virt. eigenvalues --    1.39102   1.39539   1.42774   1.43599   1.45563
 Alpha virt. eigenvalues --    1.48412   1.49233   1.51019   1.51447   1.55734
 Alpha virt. eigenvalues --    1.57638   1.60387   1.66749   1.69000   1.74740
 Alpha virt. eigenvalues --    1.75880   1.78294   1.79738   1.80487   1.81442
 Alpha virt. eigenvalues --    1.83469   1.86432   1.89208   1.91105   1.92747
 Alpha virt. eigenvalues --    1.94654   1.96119   1.97632   1.99260   2.00276
 Alpha virt. eigenvalues --    2.04663   2.05805   2.07711   2.13627   2.14146
 Alpha virt. eigenvalues --    2.15106   2.16259   2.21426   2.22093   2.26235
 Alpha virt. eigenvalues --    2.29638   2.31643   2.34121   2.36594   2.38575
 Alpha virt. eigenvalues --    2.40644   2.43097   2.51970   2.54481   2.57893
 Alpha virt. eigenvalues --    2.58250   2.62191   2.64041   2.65563   2.67809
 Alpha virt. eigenvalues --    2.72606   2.74406   2.74980   2.76623   2.79148
 Alpha virt. eigenvalues --    2.85360   2.93071   2.98881   3.04981   3.11442
 Alpha virt. eigenvalues --    3.40842   3.79551   3.84040   4.09100   4.11914
 Alpha virt. eigenvalues --    4.12824   4.14894   4.24866   4.33697   4.40198
 Alpha virt. eigenvalues --    4.42786   4.62228   4.71014
          Condensed to atoms (all electrons):
               1          2          3          4          5          6
     1  C    5.126788   0.349201   0.280376  -0.029374  -0.026833   0.297436
     2  H    0.349201   0.635987  -0.044086  -0.005065  -0.002629  -0.036696
     3  N    0.280376  -0.044086   6.998430   0.293917   0.301418  -0.036203
     4  H   -0.029374  -0.005065   0.293917   0.441039  -0.026900   0.005108
     5  H   -0.026833  -0.002629   0.301418  -0.026900   0.430927  -0.011040
     6  C    0.297436  -0.036696  -0.036203   0.005108  -0.011040   4.358533
     7  O   -0.080162   0.001107   0.001262  -0.000089   0.000110   0.571282
     8  O   -0.093572  -0.000307  -0.001991   0.000062   0.011990   0.281800
     9  H    0.010964  -0.000539  -0.000319   0.000033  -0.000334  -0.007194
    10  C    0.339660  -0.053838  -0.061841  -0.006015   0.006256  -0.030141
    11  H   -0.032904   0.001119   0.004611  -0.000065  -0.000218  -0.004361
    12  H   -0.035947   0.006516   0.001820  -0.000287  -0.000039  -0.005600
    13  C   -0.034978  -0.004094  -0.007361   0.008507   0.000130   0.004718
    14  C   -0.005652   0.000848  -0.000784   0.008166  -0.000039  -0.000089
    15  C   -0.003684   0.003957  -0.000130   0.000130  -0.000022   0.000067
    16  C   -0.000054  -0.000010  -0.000110   0.000202   0.000002   0.000001
    17  H   -0.000137   0.000148   0.002824  -0.000675  -0.000015  -0.000059
    18  C   -0.000059  -0.000176   0.000019  -0.000072  -0.000001   0.000003
    19  H    0.000316   0.001147   0.000017  -0.000012  -0.000000  -0.000069
    20  C    0.000024  -0.000001   0.000009  -0.000079  -0.000000  -0.000000
    21  H   -0.000001  -0.000000  -0.000002   0.000003   0.000000  -0.000000
    22  H   -0.000001   0.000002   0.000000  -0.000000   0.000000  -0.000000
    23  H    0.000000  -0.000000   0.000000  -0.000000  -0.000000   0.000000
               7          8          9         10         11         12
     1  C   -0.080162  -0.093572   0.010964   0.339660  -0.032904  -0.035947
     2  H    0.001107  -0.000307  -0.000539  -0.053838   0.001119   0.006516
     3  N    0.001262  -0.001991  -0.000319  -0.061841   0.004611   0.001820
     4  H   -0.000089   0.000062   0.000033  -0.006015  -0.000065  -0.000287
     5  H    0.000110   0.011990  -0.000334   0.006256  -0.000218  -0.000039
     6  C    0.571282   0.281800  -0.007194  -0.030141  -0.004361  -0.005600
     7  O    8.029496  -0.084086   0.011642   0.002204   0.008054   0.002147
     8  O   -0.084086   8.247192   0.216656   0.002606   0.000161   0.000001
     9  H    0.011642   0.216656   0.357864  -0.000255  -0.000020  -0.000017
    10  C    0.002204   0.002606  -0.000255   5.206590   0.351413   0.356132
    11  H    0.008054   0.000161  -0.000020   0.351413   0.562528  -0.027518
    12  H    0.002147   0.000001  -0.000017   0.356132  -0.027518   0.563832
    13  C    0.000722  -0.000017   0.000001   0.336955  -0.031722  -0.029860
    14  C   -0.000004  -0.000001   0.000000  -0.053984   0.004094  -0.004824
    15  C   -0.000007  -0.000001   0.000000  -0.055577  -0.005586   0.004007
    16  C   -0.000000  -0.000000   0.000000   0.006400  -0.000173   0.000155
    17  H    0.000001   0.000000  -0.000000  -0.008723   0.000060   0.005821
    18  C   -0.000000  -0.000000   0.000000   0.006506   0.000162  -0.000202
    19  H    0.000000   0.000000  -0.000000  -0.009019   0.005073   0.000070
    20  C    0.000000   0.000000  -0.000000   0.000371   0.000009   0.000013
    21  H   -0.000000   0.000000  -0.000000  -0.000171   0.000003  -0.000007
    22  H   -0.000000   0.000000  -0.000000  -0.000175  -0.000007   0.000003
    23  H    0.000000  -0.000000  -0.000000   0.000006  -0.000000  -0.000000
              13         14         15         16         17         18
     1  C   -0.034978  -0.005652  -0.003684  -0.000054  -0.000137  -0.000059
     2  H   -0.004094   0.000848   0.003957  -0.000010   0.000148  -0.000176
     3  N   -0.007361  -0.000784  -0.000130  -0.000110   0.002824   0.000019
     4  H    0.008507   0.008166   0.000130   0.000202  -0.000675  -0.000072
     5  H    0.000130  -0.000039  -0.000022   0.000002  -0.000015  -0.000001
     6  C    0.004718  -0.000089   0.000067   0.000001  -0.000059   0.000003
     7  O    0.000722  -0.000004  -0.000007  -0.000000   0.000001  -0.000000
     8  O   -0.000017  -0.000001  -0.000001  -0.000000   0.000000  -0.000000
     9  H    0.000001   0.000000   0.000000   0.000000  -0.000000   0.000000
    10  C    0.336955  -0.053984  -0.055577   0.006400  -0.008723   0.006506
    11  H   -0.031722   0.004094  -0.005586  -0.000173   0.000060   0.000162
    12  H   -0.029860  -0.004824   0.004007   0.000155   0.005821  -0.000202
    13  C    4.685649   0.540170   0.543908  -0.022697  -0.043403  -0.018619
    14  C    0.540170   4.983920  -0.043652   0.515847   0.355348  -0.046512
    15  C    0.543908  -0.043652   4.970876  -0.046234   0.006121   0.522329
    16  C   -0.022697   0.515847  -0.046234   4.878720  -0.044917  -0.026510
    17  H   -0.043403   0.355348   0.006121  -0.044917   0.586518   0.000332
    18  C   -0.018619  -0.046512   0.522329  -0.026510   0.000332   4.869234
    19  H   -0.046078   0.006286   0.354498   0.000339  -0.000174  -0.045801
    20  C   -0.034449  -0.035426  -0.035576   0.550159   0.004665   0.549080
    21  H    0.003732  -0.039438   0.000816   0.356788  -0.005408   0.004603
    22  H    0.003742   0.000796  -0.039603   0.004613   0.000017   0.356691
    23  H    0.000653   0.004671   0.004725  -0.043276  -0.000171  -0.043027
              19         20         21         22         23
     1  C    0.000316   0.000024  -0.000001  -0.000001   0.000000
     2  H    0.001147  -0.000001  -0.000000   0.000002  -0.000000
     3  N    0.000017   0.000009  -0.000002   0.000000   0.000000
     4  H   -0.000012  -0.000079   0.000003  -0.000000  -0.000000
     5  H   -0.000000  -0.000000   0.000000   0.000000  -0.000000
     6  C   -0.000069  -0.000000  -0.000000  -0.000000   0.000000
     7  O    0.000000   0.000000  -0.000000  -0.000000   0.000000
     8  O    0.000000   0.000000   0.000000   0.000000  -0.000000
     9  H   -0.000000  -0.000000  -0.000000  -0.000000  -0.000000
    10  C   -0.009019   0.000371  -0.000171  -0.000175   0.000006
    11  H    0.005073   0.000009   0.000003  -0.000007  -0.000000
    12  H    0.000070   0.000013  -0.000007   0.000003  -0.000000
    13  C   -0.046078  -0.034449   0.003732   0.003742   0.000653
    14  C    0.006286  -0.035426  -0.039438   0.000796   0.004671
    15  C    0.354498  -0.035576   0.000816  -0.039603   0.004725
    16  C    0.000339   0.550159   0.356788   0.004613  -0.043276
    17  H   -0.000174   0.004665  -0.005408   0.000017  -0.000171
    18  C   -0.045801   0.549080   0.004603   0.356691  -0.043027
    19  H    0.608770   0.004840   0.000018  -0.005663  -0.000181
    20  C    0.004840   4.854184  -0.043218  -0.043225   0.359233
    21  H    0.000018  -0.043218   0.597052  -0.000188  -0.005581
    22  H   -0.005663  -0.043225  -0.000188   0.598398  -0.005542
    23  H   -0.000181   0.359233  -0.005581  -0.005542   0.598939
 Mulliken charges:
               1
     1  C   -0.061407
     2  H    0.147408
     3  N   -0.731875
     4  H    0.311466
     5  H    0.317238
     6  C    0.612507
     7  O   -0.463680
     8  O   -0.580495
     9  H    0.411518
    10  C   -0.335360
    11  H    0.165287
    12  H    0.163783
    13  C    0.144396
    14  C   -0.189742
    15  C   -0.181359
    16  C   -0.129245
    17  H    0.141826
    18  C   -0.127977
    19  H    0.125623
    20  C   -0.130611
    21  H    0.131001
    22  H    0.130143
    23  H    0.129553
 Sum of Mulliken charges =  -0.00000
 Mulliken charges with hydrogens summed into heavy atoms:
               1
     1  C    0.086002
     3  N   -0.103171
     6  C    0.612507
     7  O   -0.463680
     8  O   -0.168977
    10  C   -0.006289
    13  C    0.144396
    14  C   -0.047915
    15  C   -0.055736
    16  C    0.001756
    18  C    0.002166
    20  C   -0.001058
 Electronic spatial extent (au):  <R**2>=           2639.7713
 Charge=             -0.0000 electrons
 Dipole moment (field-independent basis, Debye):
    X=              0.3808    Y=              0.6391    Z=             -2.1335  Tot=              2.2595
 Quadrupole moment (field-independent basis, Debye-Ang):
   XX=            -61.1253   YY=            -70.0527   ZZ=            -70.9482
   XY=             -1.4127   XZ=              3.4771   YZ=              2.3454
 Traceless Quadrupole moment (field-independent basis, Debye-Ang):
   XX=              6.2501   YY=             -2.6773   ZZ=             -3.5727
   XY=             -1.4127   XZ=              3.4771   YZ=              2.3454
 Octapole moment (field-independent basis, Debye-Ang**2):
  XXX=            -64.9648  YYY=              1.4094  ZZZ=             -1.9783  XYY=              3.4994
  XXY=             15.9131  XXZ=            -24.2252  XZZ=            -10.5210  YZZ=              4.3158
  YYZ=             -8.9678  XYZ=              2.0037
 Hexadecapole moment (field-independent basis, Debye-Ang**3):
 XXXX=          -2231.5661 YYYY=           -433.9925 ZZZZ=           -240.5639 XXXY=            -21.6804
 XXXZ=             28.4525 YYYX=              1.3000 YYYZ=             -6.7038 ZZZX=              4.2587
 ZZZY=             -5.1886 XXYY=           -538.3655 XXZZ=           -517.2105 YYZZ=           -105.5867
 XXYZ=             40.2375 YYXZ=             14.4483 ZZXY=             -8.0860
 N-N= 6.660529238994D+02 E-N=-2.624035583602D+03  KE= 5.496261674457D+02
 Unable to Open any file for archive entry.
 1\1\GINC-CCC067\SP\RB3LYP TD-FC\6-31G(d)\C9H11N1O2\ROOT\21-Feb-2025\0\
 \# td=(nstat=3) b3lyp/6-31g(d)\\phe | No.1\\0,1\C,0,-1.372598,0.096984
 ,-0.31862\H,0,-1.161869,-0.421369,-1.275825\N,0,-1.238261,1.553535,-0.
 40979\H,0,-0.29789,1.775204,-0.731944\H,0,-1.88811,1.915416,-1.104135\
 C,0,-2.817905,-0.262924,0.013217\O,0,-3.181458,-1.10563,0.801528\O,0,-
 3.693083,0.454014,-0.737824\H,0,-4.583921,0.154995,-0.474784\C,0,-0.42
 0064,-0.4755,0.749283\H,0,-0.647804,-1.538552,0.872231\H,0,-0.649957,0
 .016622,1.700212\C,0,1.039184,-0.285425,0.393411\C,0,1.737239,0.864753
 ,0.790778\C,0,1.719912,-1.245081,-0.36987\C,0,3.074379,1.051166,0.4340
 77\H,0,1.226153,1.61453,1.38993\C,0,3.05594,-1.062729,-0.728002\H,0,1.
 19801,-2.14855,-0.678899\C,0,3.738053,0.087987,-0.327303\H,0,3.59849,1
 .947134,0.756833\H,0,3.566171,-1.822174,-1.314957\H,0,4.780039,0.22954
 2,-0.601586\\Version=ES64L-G16RevC.02\State=1-A\HF=-554.7866302\RMSD=4
 .406e-09\PG=C01 [X(C9H11N1O2)]\\@
 The archive entry for this job was punched.


 SIGN SEEN IN A RESTAURANT-
 WE RESERVE THE RIGHT TO SERVE REFUSE TO ANYONE.
 Job cpu time:       0 days  0 hours  8 minutes 35.3 seconds.
 Elapsed time:       0 days  0 hours  1 minutes 12.7 seconds.
 File lengths (MBytes):  RWF=    272 Int=      0 D2E=      0 Chk=      8 Scr=      1
 Normal termination of Gaussian 16 at Fri Feb 21 15:15:30 2025.
