 Entering Gaussian System, Link 0=/apl/gaussian/16c02/g16/._.g16
 Initial command:
 /apl/gaussian/16c02/g16/l1.exe "/lwork/users/ux8/8287073.ccpbs1/gaussian/Gau-526249.inp" -scrdir="/lwork/users/ux8/8287073.ccpbs1/gaussian/"
 Default CPUs for threads: 36,37,38,39,40,41,42,43
 Default is to use a total of   8 processors:
                                8 via shared-memory
                                1 via Linda
 Entering Link 1 = /apl/gaussian/16c02/g16/l1.exe PID=    526283.
  
 Copyright (c) 1988-2021, Gaussian, Inc.  All Rights Reserved.
  
 This is part of the Gaussian(R) 16 program.  It is based on
 the Gaussian(R) 09 system (copyright 2009, Gaussian, Inc.),
 the Gaussian(R) 03 system (copyright 2003, Gaussian, Inc.),
 the Gaussian(R) 98 system (copyright 1998, Gaussian, Inc.),
 the Gaussian(R) 94 system (copyright 1995, Gaussian, Inc.),
 the Gaussian 92(TM) system (copyright 1992, Gaussian, Inc.),
 the Gaussian 90(TM) system (copyright 1990, Gaussian, Inc.),
 the Gaussian 88(TM) system (copyright 1988, Gaussian, Inc.),
 the Gaussian 86(TM) system (copyright 1986, Carnegie Mellon
 University), and the Gaussian 82(TM) system (copyright 1983,
 Carnegie Mellon University). Gaussian is a federally registered
 trademark of Gaussian, Inc.
  
 This software contains proprietary and confidential information,
 including trade secrets, belonging to Gaussian, Inc.
  
 This software is provided under written license and may be
 used, copied, transmitted, or stored only in accord with that
 written license.
  
 The following legend is applicable only to US Government
 contracts under FAR:
  
                    RESTRICTED RIGHTS LEGEND
  
 Use, reproduction and disclosure by the US Government is
 subject to restrictions as set forth in subparagraphs (a)
 and (c) of the Commercial Computer Software - Restricted
 Rights clause in FAR 52.227-19.
  
 Gaussian, Inc.
 340 Quinnipiac St., Bldg. 40, Wallingford CT 06492
  
  
 ---------------------------------------------------------------
 Warning -- This program may not be used in any manner that
 competes with the business of Gaussian, Inc. or will provide
 assistance to any competitor of Gaussian, Inc.  The licensee
 of this program is prohibited from giving any competitor of
 Gaussian, Inc. access to this program.  By using this program,
 the user acknowledges that Gaussian, Inc. is engaged in the
 business of creating and licensing software in the field of
 computational chemistry and represents and warrants to the
 licensee that it is not a competitor of Gaussian, Inc. and that
 it will not use this program in any manner prohibited above.
 ---------------------------------------------------------------
  

 Cite this work as:
 Gaussian 16, Revision C.02,
 M. J. Frisch, G. W. Trucks, H. B. Schlegel, G. E. Scuseria, 
 M. A. Robb, J. R. Cheeseman, G. Scalmani, V. Barone, 
 G. A. Petersson, H. Nakatsuji, X. Li, M. Caricato, A. V. Marenich, 
 J. Bloino, B. G. Janesko, R. Gomperts, B. Mennucci, H. P. Hratchian, 
 J. V. Ortiz, A. F. Izmaylov, J. L. Sonnenberg, D. Williams-Young, 
 F. Ding, F. Lipparini, F. Egidi, J. Goings, B. Peng, A. Petrone, 
 T. Henderson, D. Ranasinghe, V. G. Zakrzewski, J. Gao, N. Rega, 
 G. Zheng, W. Liang, M. Hada, M. Ehara, K. Toyota, R. Fukuda, 
 J. Hasegawa, M. Ishida, T. Nakajima, Y. Honda, O. Kitao, H. Nakai, 
 T. Vreven, K. Throssell, J. A. Montgomery, Jr., J. E. Peralta, 
 F. Ogliaro, M. J. Bearpark, J. J. Heyd, E. N. Brothers, K. N. Kudin, 
 V. N. Staroverov, T. A. Keith, R. Kobayashi, J. Normand, 
 K. Raghavachari, A. P. Rendell, J. C. Burant, S. S. Iyengar, 
 J. Tomasi, M. Cossi, J. M. Millam, M. Klene, C. Adamo, R. Cammi, 
 J. W. Ochterski, R. L. Martin, K. Morokuma, O. Farkas, 
 J. B. Foresman, and D. J. Fox, Gaussian, Inc., Wallingford CT, 2019.
 
 ******************************************
 Gaussian 16:  ES64L-G16RevC.02  7-Dec-2021
                21-Feb-2025 
 ******************************************
 %chk=phe.014.tddft.chk
 %mem=9600MB
 SetSPE:  set environment variable "OMP_PROC_BIND" = "true"
 SetSPE:  set environment variable "OMP_PLACES" = "{36},{37},{38},{39},{40},{41},{42},{43}"
 -----------------------------
 # td=(nstat=3) b3lyp/6-31g(d)
 -----------------------------
 1/38=1,172=1/1;
 2/12=2,17=6,18=5,40=1/2;
 3/5=1,6=6,7=1,11=9,25=1,30=1,74=-5/1,2,3,8;
 4//1;
 5/5=2,38=5/2;
 8/6=1,10=2,108=3/1;
 9/41=3,42=1,70=2/14;
 6/7=2,8=2,9=2,10=2/1;
 99/5=1,9=1/99;
 -----------
 phe | No.14
 -----------
 Symbolic Z-matrix:
 Charge =  0 Multiplicity = 1
 C                    -1.42792  -0.38273   0.02137 
 H                    -1.04375  -0.59155   1.03802 
 N                    -1.79046  -1.59769  -0.72573 
 H                    -0.95622  -2.14924  -0.91165 
 H                    -2.41819  -2.1739   -0.16925 
 C                    -2.70459   0.43039   0.24595 
 O                    -2.84459   1.62047   0.07996 
 O                    -3.70201  -0.35661   0.72289 
 H                    -4.47368   0.22748   0.8463 
 C                    -0.37046   0.44049  -0.73855 
 H                    -0.60903   1.50043  -0.61579 
 H                    -0.49926   0.2205   -1.8076 
 C                     1.07058   0.20921  -0.31793 
 C                     1.94524   1.30177  -0.23162 
 C                     1.5798   -1.06153  -0.01254 
 C                     3.28194   1.13365   0.13098 
 H                     1.57013   2.29864  -0.452 
 C                     2.91443  -1.23603   0.35674 
 H                     0.93128  -1.93353  -0.0517 
 C                     3.77316  -0.1385    0.42698 
 H                     3.93697   1.99908   0.18989 
 H                     3.28206  -2.23217   0.58953 
 H                     4.81272  -0.27316   0.7133 
 
                          Input orientation:                          
 ---------------------------------------------------------------------
 Center     Atomic      Atomic             Coordinates (Angstroms)
 Number     Number       Type             X           Y           Z
 ---------------------------------------------------------------------
      1          6           0       -1.427921   -0.382730    0.021370
      2          1           0       -1.043753   -0.591549    1.038023
      3          7           0       -1.790463   -1.597688   -0.725727
      4          1           0       -0.956224   -2.149240   -0.911651
      5          1           0       -2.418188   -2.173900   -0.169252
      6          6           0       -2.704589    0.430394    0.245947
      7          8           0       -2.844587    1.620472    0.079964
      8          8           0       -3.702012   -0.356609    0.722891
      9          1           0       -4.473677    0.227477    0.846297
     10          6           0       -0.370460    0.440485   -0.738554
     11          1           0       -0.609027    1.500428   -0.615793
     12          1           0       -0.499258    0.220500   -1.807599
     13          6           0        1.070581    0.209214   -0.317931
     14          6           0        1.945236    1.301774   -0.231621
     15          6           0        1.579802   -1.061529   -0.012539
     16          6           0        3.281935    1.133645    0.130978
     17          1           0        1.570126    2.298642   -0.452000
     18          6           0        2.914428   -1.236026    0.356736
     19          1           0        0.931282   -1.933533   -0.051703
     20          6           0        3.773156   -0.138502    0.426981
     21          1           0        3.936973    1.999081    0.189894
     22          1           0        3.282057   -2.232168    0.589533
     23          1           0        4.812718   -0.273164    0.713296
 ---------------------------------------------------------------------
                    Distance matrix (angstroms):
                    1          2          3          4          5
     1  C    0.000000
     2  H    1.106695   0.000000
     3  N    1.471636   2.163494   0.000000
     4  H    2.052702   2.497057   1.017218   0.000000
     5  H    2.055543   2.418764   1.017705   1.639849   0.000000
     6  C    1.530192   2.104787   2.427528   3.324353   2.652690
     7  O    2.454220   3.008973   3.480929   4.331275   3.826380
     8  O    2.379980   2.687163   2.700517   3.663960   2.397221
     9  H    3.213952   3.531564   3.605846   4.594741   3.320088
    10  C    1.540581   2.162092   2.484094   2.660781   3.369318
    11  H    2.150081   2.701937   3.317559   3.678064   4.119848
    12  H    2.138090   3.008897   2.478601   2.574336   3.478451
    13  C    2.589987   2.636331   3.408338   3.165872   4.227629
    14  C    3.778855   3.759085   4.754626   4.559650   5.578859
    15  C    3.083556   2.864891   3.486372   2.902231   4.152813
    16  C    4.949157   4.744534   5.824375   5.461355   6.597075
    17  H    4.049953   4.172018   5.152657   5.135891   5.999186
    18  C    4.438083   4.067763   4.841335   4.174292   5.439951
    19  H    2.824211   2.624726   2.824004   2.085358   3.360140
    20  C    5.222583   4.876601   5.866159   5.310559   6.544546
    21  H    5.872266   5.677880   6.824854   6.508867   7.611230
    22  H    5.091868   4.648162   5.278535   4.497050   5.750821
    23  H    6.279836   5.874102   6.886737   6.280192   7.528459
                    6          7          8          9         10
     6  C    0.000000
     7  O    1.209725   0.000000
     8  O    1.357093   2.248862   0.000000
     9  H    1.879167   2.276321   0.975629   0.000000
    10  C    2.533279   2.860707   3.724301   4.403807   0.000000
    11  H    2.505783   2.344401   3.848015   4.323613   1.093373
    12  H    3.020694   3.320148   4.122386   4.779040   1.099018
    13  C    3.823452   4.180731   4.917429   5.665206   1.518884
    14  C    4.754813   4.810515   5.962612   6.596853   2.522151
    15  C    4.544079   5.174640   5.379157   6.248499   2.566450
    16  C    6.028785   6.146045   7.165664   7.841067   3.817924
    17  H    4.717061   4.498065   6.018818   6.519421   2.701987
    18  C    5.861961   6.434473   6.684663   7.547556   3.847186
    19  H    4.346988   5.187049   4.955209   5.889817   2.793252
    20  C    6.505198   6.856306   7.484201   8.265593   4.343184
    21  H    6.824534   6.793010   8.011707   8.620237   4.673887
    22  H    6.561038   7.255223   7.232754   8.140466   4.716754
    23  H    7.564609   7.913361   8.515144   9.300831   5.429779
                   11         12         13         14         15
    11  H    0.000000
    12  H    1.752332   0.000000
    13  C    2.139401   2.164170   0.000000
    14  C    2.590620   3.102968   1.402198   0.000000
    15  C    3.423231   3.031226   1.402625   2.401404   0.000000
    16  C    3.978917   4.346186   2.438479   1.395174   2.781482
    17  H    2.326517   3.230894   2.152494   1.087667   3.388800
    18  C    4.566041   4.296402   2.437963   2.779555   1.395722
    19  H    3.805632   3.125616   2.163711   3.395244   1.087430
    20  C    4.793433   4.834848   2.824838   2.418562   2.419909
    21  H    4.643695   5.180104   3.417267   2.151959   3.868406
    22  H    5.524999   5.104916   3.416791   3.866540   2.151873
    23  H    5.857254   5.900483   3.911484   3.405253   3.405892
                   16         17         18         19         20
    16  C    0.000000
    17  H    2.151133   0.000000
    18  C    2.408603   3.867180   0.000000
    19  H    3.868659   4.298798   2.141543   0.000000
    20  C    1.395448   3.400826   1.395316   3.395221   0.000000
    21  H    1.086980   2.470573   3.396962   4.955603   2.156921
    22  H    3.396906   4.954164   1.087035   2.454895   2.156627
    23  H    2.159051   4.299593   2.158181   4.290407   1.086646
                   21         22         23
    21  H    0.000000
    22  H    4.300244   0.000000
    23  H    2.490778   2.489164   0.000000
 Stoichiometry    C9H11NO2
 Framework group  C1[X(C9H11NO2)]
 Deg. of freedom    63
 Full point group                 C1      NOp   1
 Largest Abelian subgroup         C1      NOp   1
 Largest concise Abelian subgroup C1      NOp   1
                         Standard orientation:                         
 ---------------------------------------------------------------------
 Center     Atomic      Atomic             Coordinates (Angstroms)
 Number     Number       Type             X           Y           Z
 ---------------------------------------------------------------------
      1          6           0       -1.427921    0.382730   -0.021370
      2          1           0       -1.043753    0.591549   -1.038023
      3          7           0       -1.790463    1.597688    0.725727
      4          1           0       -0.956224    2.149240    0.911651
      5          1           0       -2.418188    2.173900    0.169252
      6          6           0       -2.704589   -0.430394   -0.245947
      7          8           0       -2.844587   -1.620472   -0.079964
      8          8           0       -3.702012    0.356609   -0.722891
      9          1           0       -4.473677   -0.227477   -0.846297
     10          6           0       -0.370460   -0.440485    0.738554
     11          1           0       -0.609027   -1.500428    0.615793
     12          1           0       -0.499258   -0.220500    1.807599
     13          6           0        1.070581   -0.209214    0.317931
     14          6           0        1.945236   -1.301774    0.231621
     15          6           0        1.579802    1.061529    0.012539
     16          6           0        3.281935   -1.133645   -0.130978
     17          1           0        1.570126   -2.298642    0.452000
     18          6           0        2.914428    1.236026   -0.356736
     19          1           0        0.931282    1.933533    0.051703
     20          6           0        3.773156    0.138502   -0.426981
     21          1           0        3.936973   -1.999081   -0.189894
     22          1           0        3.282057    2.232168   -0.589533
     23          1           0        4.812718    0.273164   -0.713296
 ---------------------------------------------------------------------
 Rotational constants (GHZ):           2.2863137           0.4525654           0.3994792
 Standard basis: 6-31G(d) (6D, 7F)
 There are   202 symmetry adapted cartesian basis functions of A   symmetry.
 There are   202 symmetry adapted basis functions of A   symmetry.
   202 basis functions,   380 primitive gaussians,   202 cartesian basis functions
    44 alpha electrons       44 beta electrons
       nuclear repulsion energy       662.4773111979 Hartrees.
 NAtoms=   23 NActive=   23 NUniq=   23 SFac= 1.00D+00 NAtFMM=   60 NAOKFM=F Big=F
 Integral buffers will be    131072 words long.
 Regular integral format.
 Two-electron integral symmetry is turned on.
 One-electron integrals computed using PRISM.
 NBasis=   202 RedAO= T EigKep=  4.62D-04  NBF=   202
 NBsUse=   202 1.00D-06 EigRej= -1.00D+00 NBFU=   202
 ExpMin= 1.61D-01 ExpMax= 5.48D+03 ExpMxC= 8.25D+02 IAcc=3 IRadAn=         5 AccDes= 0.00D+00
 Harris functional with IExCor=  402 and IRadAn=       5 diagonalized for initial guess.
 HarFok:  IExCor=  402 AccDes= 0.00D+00 IRadAn=         5 IDoV= 1 UseB2=F ITyADJ=14
 ICtDFT=  3500011 ScaDFX=  1.000000  1.000000  1.000000  1.000000
 FoFCou: FMM=F IPFlag=           0 FMFlag=      100000 FMFlg1=           0
         NFxFlg=           0 DoJE=T BraDBF=F KetDBF=T FulRan=T
         wScrn=  0.000000 ICntrl=       500 IOpCl=  0 I1Cent=   200000004 NGrid=           0
         NMat0=    1 NMatS0=      1 NMatT0=    0 NMatD0=    1 NMtDS0=    0 NMtDT0=    0
 Petite list used in FoFCou.
 Requested convergence on RMS density matrix=1.00D-08 within 128 cycles.
 Requested convergence on MAX density matrix=1.00D-06.
 Requested convergence on             energy=1.00D-06.
 No special actions if energy rises.
 Integral accuracy reduced to 1.0D-05 until final iterations.
 Initial convergence to 1.0D-05 achieved.  Increase integral accuracy.
 SCF Done:  E(RB3LYP) =  -554.780757697     A.U. after   14 cycles
            NFock= 14  Conv=0.45D-08     -V/T= 2.0094
 DoSCS=F DFT=T ScalE2(SS,OS)=  1.000000  1.000000
 ExpMin= 1.61D-01 ExpMax= 5.48D+03 ExpMxC= 8.25D+02 IAcc=3 IRadAn=         5 AccDes= 0.00D+00
 HarFok:  IExCor=  205 AccDes= 0.00D+00 IRadAn=         5 IDoV=-2 UseB2=F ITyADJ=14
 ICtDFT= 12500011 ScaDFX=  1.000000  1.000000  1.000000  1.000000
 Range of M.O.s used for correlation:    13   202
 NBasis=   202 NAE=    44 NBE=    44 NFC=    12 NFV=     0
 NROrb=    190 NOA=    32 NOB=    32 NVA=   158 NVB=   158
 Keep R1, R2, and R3 ints in memory in canonical form, NReq=656629584.
 Orbital symmetries:
       Occupied  (A) (A) (A) (A) (A) (A) (A) (A) (A) (A) (A) (A)
                 (A) (A) (A) (A) (A) (A) (A) (A) (A) (A) (A) (A)
                 (A) (A) (A) (A) (A) (A) (A) (A) (A) (A) (A) (A)
                 (A) (A) (A) (A) (A) (A) (A) (A)
       Virtual   (A) (A) (A) (A) (A) (A) (A) (A) (A) (A) (A) (A)
                 (A) (A) (A) (A) (A) (A) (A) (A) (A) (A) (A) (A)
                 (A) (A) (A) (A) (A) (A) (A) (A) (A) (A) (A) (A)
                 (A) (A) (A) (A) (A) (A) (A) (A) (A) (A) (A) (A)
                 (A) (A) (A) (A) (A) (A) (A) (A) (A) (A) (A) (A)
                 (A) (A) (A) (A) (A) (A) (A) (A) (A) (A) (A) (A)
                 (A) (A) (A) (A) (A) (A) (A) (A) (A) (A) (A) (A)
                 (A) (A) (A) (A) (A) (A) (A) (A) (A) (A) (A) (A)
                 (A) (A) (A) (A) (A) (A) (A) (A) (A) (A) (A) (A)
                 (A) (A) (A) (A) (A) (A) (A) (A) (A) (A) (A) (A)
                 (A) (A) (A) (A) (A) (A) (A) (A) (A) (A) (A) (A)
                 (A) (A) (A) (A) (A) (A) (A) (A) (A) (A) (A) (A)
                 (A) (A) (A) (A) (A) (A) (A) (A) (A) (A) (A) (A)
                 (A) (A)
    12 initial guesses have been made.
 Convergence on wavefunction:    0.001000000000000
 Iteration     1 Dimension    12 NMult     0 NNew     12
 CISAX will form    12 AO SS matrices at one time.
 New state      2 was old state      5
 Iteration     2 Dimension    18 NMult    12 NNew      6
 Iteration     3 Dimension    24 NMult    18 NNew      6
 Iteration     4 Dimension    30 NMult    24 NNew      6
 Iteration     5 Dimension    36 NMult    30 NNew      6
 Iteration     6 Dimension    38 NMult    36 NNew      2
 Iteration     7 Dimension    40 NMult    38 NNew      2
 ***********************************************************************
 Excited states from <AA,BB:AA,BB> singles matrix:
 ***********************************************************************
 
 Ground to excited state transition densities written to RWF  633
 Ground to excited state transition electric dipole moments (Au):
       state          X           Y           Z        Dip. S.      Osc.
         1         0.0348     -0.0945      0.0118      0.0103      0.0014
         2        -0.1283     -0.0267      0.0738      0.0226      0.0030
         3        -0.1109     -0.0321      0.0037      0.0133      0.0019
 Ground to excited state transition velocity dipole moments (Au):
       state          X           Y           Z        Dip. S.      Osc.
         1        -0.0044      0.0184     -0.0007      0.0004      0.0012
         2         0.0212      0.0073     -0.0180      0.0008      0.0027
         3         0.0218      0.0068      0.0033      0.0005      0.0016
 Ground to excited state transition magnetic dipole moments (Au):
       state          X           Y           Z
         1         0.0062     -0.0177      0.2550
         2         0.2059      0.3409      0.1176
         3         0.1203      0.1791      0.2931
 Ground to excited state transition velocity quadrupole moments (Au):
       state          XX          YY          ZZ          XY          XZ          YZ
         1         0.0398      0.0303     -0.0368      0.1417     -0.0138     -0.0004
         2        -0.0057     -0.0748      0.0773     -0.0556     -0.0175     -0.0090
         3         0.0998     -0.0876      0.0279      0.1158     -0.0476      0.0118
 <0|del|b> * <b|rxdel|0> + <0|del|b> * <b|delr+rdel|0>
 Rotatory Strengths (R) in cgs (10**-40 erg-esu-cm/Gauss)
       state          XX          YY          ZZ    R(velocity)    E-M Angle
         1        -0.6130     -0.1833     -1.0852     -0.6272       96.26
         2         2.6207      1.8708     12.1041      5.5319       66.59
         3         4.7343      5.6608      5.3169      5.2373       55.01
 1/2[<0|r|b>*<b|rxdel|0> + (<0|rxdel|b>*<b|r|0>)*]
 Rotatory Strengths (R) in cgs (10**-40 erg-esu-cm/Gauss)
       state          XX          YY          ZZ     R(length)
         1        -0.1526     -1.1860     -2.1362     -1.1582
         2        18.6768      6.4381     -6.1376      6.3258
         3         9.4377      4.0615     -0.7600      4.2464
  1/2[<0|del|b>*<b|r|0> + (<0|r|b>*<b|del|0>)*] (Au)
       state          X           Y           Z        Dip. S.   Osc.(frdel)
         1        -0.0002     -0.0017     -0.0000      0.0019      0.0013
         2        -0.0027     -0.0002     -0.0013      0.0042      0.0028
         3        -0.0024     -0.0002      0.0000      0.0026      0.0017

 Excitation energies and oscillator strengths:
 
 Excited State   1:      Singlet-A      5.4093 eV  229.21 nm  f=0.0014  <S**2>=0.000
      42 -> 46         0.36429
      42 -> 47         0.12872
      43 -> 45        -0.20611
      43 -> 46         0.19295
      43 -> 47        -0.11210
      44 -> 45         0.47653
      44 -> 46         0.14936
 This state for optimization and/or second-order correction.
 Total Energy, E(TD-HF/TD-DFT) =  -554.581969515    
 Copying the excited state density for this state as the 1-particle RhoCI density.
 
 Excited State   2:      Singlet-A      5.4958 eV  225.60 nm  f=0.0030  <S**2>=0.000
      41 -> 47         0.22064
      42 -> 46         0.18280
      42 -> 47        -0.10636
      43 -> 45        -0.29456
      43 -> 46        -0.10471
      43 -> 47         0.33442
      44 -> 46        -0.12104
      44 -> 47         0.39050
 
 Excited State   3:      Singlet-A      5.8921 eV  210.42 nm  f=0.0019  <S**2>=0.000
      42 -> 46         0.10554
      43 -> 45         0.40295
      43 -> 46        -0.23651
      44 -> 45         0.32482
      44 -> 46        -0.38680
 SavETr:  write IOETrn=   770 NScale= 10 NData=  16 NLR=1 NState=    3 LETran=      64.

 **********************************************************************

            Population analysis using the SCF Density.

 **********************************************************************

 Orbital symmetries:
       Occupied  (A) (A) (A) (A) (A) (A) (A) (A) (A) (A) (A) (A)
                 (A) (A) (A) (A) (A) (A) (A) (A) (A) (A) (A) (A)
                 (A) (A) (A) (A) (A) (A) (A) (A) (A) (A) (A) (A)
                 (A) (A) (A) (A) (A) (A) (A) (A)
       Virtual   (A) (A) (A) (A) (A) (A) (A) (A) (A) (A) (A) (A)
                 (A) (A) (A) (A) (A) (A) (A) (A) (A) (A) (A) (A)
                 (A) (A) (A) (A) (A) (A) (A) (A) (A) (A) (A) (A)
                 (A) (A) (A) (A) (A) (A) (A) (A) (A) (A) (A) (A)
                 (A) (A) (A) (A) (A) (A) (A) (A) (A) (A) (A) (A)
                 (A) (A) (A) (A) (A) (A) (A) (A) (A) (A) (A) (A)
                 (A) (A) (A) (A) (A) (A) (A) (A) (A) (A) (A) (A)
                 (A) (A) (A) (A) (A) (A) (A) (A) (A) (A) (A) (A)
                 (A) (A) (A) (A) (A) (A) (A) (A) (A) (A) (A) (A)
                 (A) (A) (A) (A) (A) (A) (A) (A) (A) (A) (A) (A)
                 (A) (A) (A) (A) (A) (A) (A) (A) (A) (A) (A) (A)
                 (A) (A) (A) (A) (A) (A) (A) (A) (A) (A) (A) (A)
                 (A) (A) (A) (A) (A) (A) (A) (A) (A) (A) (A) (A)
                 (A) (A)
 The electronic state is 1-A.
 Alpha  occ. eigenvalues --  -19.20150 -19.14488 -14.32386 -10.32286 -10.23512
 Alpha  occ. eigenvalues --  -10.19802 -10.19080 -10.19007 -10.18926 -10.18816
 Alpha  occ. eigenvalues --  -10.18738 -10.18649  -1.10997  -1.01944  -0.89734
 Alpha  occ. eigenvalues --   -0.85278  -0.77728  -0.74294  -0.72657  -0.67197
 Alpha  occ. eigenvalues --   -0.60782  -0.59671  -0.56917  -0.51701  -0.50703
 Alpha  occ. eigenvalues --   -0.48889  -0.48814  -0.46654  -0.45046  -0.44414
 Alpha  occ. eigenvalues --   -0.42949  -0.41887  -0.40972  -0.39093  -0.38694
 Alpha  occ. eigenvalues --   -0.36617  -0.35048  -0.33783  -0.33572  -0.32353
 Alpha  occ. eigenvalues --   -0.28372  -0.25011  -0.24542  -0.23952
 Alpha virt. eigenvalues --   -0.00271   0.00016   0.00721   0.06366   0.08319
 Alpha virt. eigenvalues --    0.10551   0.12851   0.13154   0.13813   0.15377
 Alpha virt. eigenvalues --    0.15951   0.17155   0.17792   0.19366   0.21483
 Alpha virt. eigenvalues --    0.23623   0.24424   0.25788   0.27287   0.29982
 Alpha virt. eigenvalues --    0.31741   0.32180   0.34936   0.35147   0.38999
 Alpha virt. eigenvalues --    0.48121   0.50313   0.52393   0.53890   0.55298
 Alpha virt. eigenvalues --    0.56376   0.56905   0.57744   0.58862   0.59622
 Alpha virt. eigenvalues --    0.59772   0.61288   0.61920   0.62067   0.62720
 Alpha virt. eigenvalues --    0.63942   0.66338   0.67663   0.68705   0.69593
 Alpha virt. eigenvalues --    0.71671   0.72211   0.76138   0.77165   0.78486
 Alpha virt. eigenvalues --    0.80604   0.82676   0.83842   0.84231   0.85532
 Alpha virt. eigenvalues --    0.86436   0.88040   0.88948   0.90008   0.91445
 Alpha virt. eigenvalues --    0.91656   0.94141   0.95387   0.95753   0.96661
 Alpha virt. eigenvalues --    0.98959   1.00037   1.01598   1.04526   1.06787
 Alpha virt. eigenvalues --    1.08278   1.11988   1.13062   1.13820   1.16098
 Alpha virt. eigenvalues --    1.19048   1.21088   1.23876   1.27038   1.27556
 Alpha virt. eigenvalues --    1.37173   1.40808   1.43225   1.43807   1.45562
 Alpha virt. eigenvalues --    1.45975   1.48434   1.49472   1.51603   1.55144
 Alpha virt. eigenvalues --    1.60096   1.61379   1.65724   1.69605   1.74513
 Alpha virt. eigenvalues --    1.76615   1.77615   1.79595   1.81355   1.82592
 Alpha virt. eigenvalues --    1.84341   1.86160   1.88791   1.90209   1.90478
 Alpha virt. eigenvalues --    1.92653   1.95030   1.97748   1.98080   2.03009
 Alpha virt. eigenvalues --    2.05266   2.07541   2.09315   2.12642   2.14388
 Alpha virt. eigenvalues --    2.14824   2.16068   2.20558   2.20745   2.29623
 Alpha virt. eigenvalues --    2.30325   2.31107   2.32472   2.35736   2.36476
 Alpha virt. eigenvalues --    2.43685   2.45188   2.51088   2.53501   2.58173
 Alpha virt. eigenvalues --    2.59024   2.59610   2.62872   2.65950   2.67075
 Alpha virt. eigenvalues --    2.72598   2.74678   2.76457   2.78393   2.78982
 Alpha virt. eigenvalues --    2.85649   2.90806   2.98514   3.05897   3.11868
 Alpha virt. eigenvalues --    3.40914   3.80162   3.82866   4.08861   4.11683
 Alpha virt. eigenvalues --    4.12450   4.13244   4.27394   4.33246   4.34783
 Alpha virt. eigenvalues --    4.44134   4.60038   4.70109
          Condensed to atoms (all electrons):
               1          2          3          4          5          6
     1  C    5.111446   0.352549   0.281408  -0.036640  -0.024123   0.302101
     2  H    0.352549   0.625055  -0.045410  -0.003195  -0.003666  -0.035676
     3  N    0.281408  -0.045410   6.974981   0.309167   0.299323  -0.039677
     4  H   -0.036640  -0.003195   0.309167   0.435597  -0.029057   0.004930
     5  H   -0.024123  -0.003666   0.299323  -0.029057   0.434820  -0.009412
     6  C    0.302101  -0.035676  -0.039677   0.004930  -0.009412   4.354867
     7  O   -0.077175   0.001494   0.001012  -0.000088   0.000091   0.579356
     8  O   -0.093422  -0.000522  -0.001592   0.000118   0.010528   0.277339
     9  H    0.010892  -0.000538  -0.000444   0.000028  -0.000275  -0.007347
    10  C    0.333360  -0.059432  -0.049931  -0.003308   0.005643  -0.025896
    11  H   -0.041695   0.003404   0.004419  -0.000128  -0.000253  -0.005423
    12  H   -0.039245   0.006595   0.003710  -0.000324   0.000119  -0.001863
    13  C   -0.028249   0.002125  -0.002819  -0.000495   0.000042   0.002988
    14  C    0.001519   0.000465  -0.000049  -0.000034   0.000006  -0.000176
    15  C   -0.004551   0.004197  -0.002451   0.000572  -0.000180   0.000391
    16  C   -0.000132  -0.000028   0.000000  -0.000000  -0.000000  -0.000000
    17  H    0.000145   0.000027  -0.000001  -0.000000   0.000000  -0.000018
    18  C   -0.000069  -0.000363   0.000120   0.000051  -0.000003   0.000001
    19  H    0.003790  -0.002009   0.003149   0.009508   0.000551   0.000090
    20  C    0.000015  -0.000021  -0.000000   0.000003   0.000000   0.000000
    21  H    0.000001   0.000000  -0.000000   0.000000   0.000000  -0.000000
    22  H    0.000001   0.000008  -0.000001  -0.000008  -0.000000  -0.000000
    23  H   -0.000000  -0.000000   0.000000  -0.000000  -0.000000  -0.000000
               7          8          9         10         11         12
     1  C   -0.077175  -0.093422   0.010892   0.333360  -0.041695  -0.039245
     2  H    0.001494  -0.000522  -0.000538  -0.059432   0.003404   0.006595
     3  N    0.001012  -0.001592  -0.000444  -0.049931   0.004419   0.003710
     4  H   -0.000088   0.000118   0.000028  -0.003308  -0.000128  -0.000324
     5  H    0.000091   0.010528  -0.000275   0.005643  -0.000253   0.000119
     6  C    0.579356   0.277339  -0.007347  -0.025896  -0.005423  -0.001863
     7  O    8.016651  -0.085077   0.011459  -0.007684   0.018405   0.000826
     8  O   -0.085077   8.249009   0.217443   0.002209   0.000529  -0.000070
     9  H    0.011459   0.217443   0.356554  -0.000229  -0.000063  -0.000000
    10  C   -0.007684   0.002209  -0.000229   5.274467   0.351779   0.345222
    11  H    0.018405   0.000529  -0.000063   0.351779   0.534472  -0.023634
    12  H    0.000826  -0.000070  -0.000000   0.345222  -0.023634   0.561961
    13  C    0.000620  -0.000017   0.000002   0.332089  -0.031396  -0.025233
    14  C   -0.000053  -0.000000   0.000000  -0.046824  -0.006174  -0.001063
    15  C    0.000001  -0.000001   0.000000  -0.069785   0.004296  -0.002900
    16  C   -0.000000  -0.000000   0.000000   0.007100   0.000271  -0.000200
    17  H   -0.000018  -0.000000  -0.000000  -0.010197   0.006748   0.000328
    18  C    0.000000  -0.000000   0.000000   0.006377  -0.000125  -0.000129
    19  H   -0.000001   0.000002   0.000000  -0.009705  -0.000079   0.000124
    20  C    0.000000   0.000000  -0.000000   0.000290  -0.000002   0.000032
    21  H    0.000000   0.000000  -0.000000  -0.000180  -0.000010   0.000003
    22  H   -0.000000   0.000000  -0.000000  -0.000171   0.000002   0.000002
    23  H    0.000000   0.000000  -0.000000   0.000008  -0.000000  -0.000000
              13         14         15         16         17         18
     1  C   -0.028249   0.001519  -0.004551  -0.000132   0.000145  -0.000069
     2  H    0.002125   0.000465   0.004197  -0.000028   0.000027  -0.000363
     3  N   -0.002819  -0.000049  -0.002451   0.000000  -0.000001   0.000120
     4  H   -0.000495  -0.000034   0.000572  -0.000000  -0.000000   0.000051
     5  H    0.000042   0.000006  -0.000180  -0.000000   0.000000  -0.000003
     6  C    0.002988  -0.000176   0.000391  -0.000000  -0.000018   0.000001
     7  O    0.000620  -0.000053   0.000001  -0.000000  -0.000018   0.000000
     8  O   -0.000017  -0.000000  -0.000001  -0.000000  -0.000000  -0.000000
     9  H    0.000002   0.000000   0.000000   0.000000  -0.000000   0.000000
    10  C    0.332089  -0.046824  -0.069785   0.007100  -0.010197   0.006377
    11  H   -0.031396  -0.006174   0.004296   0.000271   0.006748  -0.000125
    12  H   -0.025233  -0.001063  -0.002900  -0.000200   0.000328  -0.000129
    13  C    4.656824   0.541576   0.538756  -0.019010  -0.043940  -0.016869
    14  C    0.541576   4.976512  -0.038891   0.517073   0.354861  -0.047149
    15  C    0.538756  -0.038891   5.002557  -0.047753   0.006453   0.523172
    16  C   -0.019010   0.517073  -0.047753   4.871604  -0.046141  -0.026516
    17  H   -0.043940   0.354861   0.006453  -0.046141   0.602698   0.000369
    18  C   -0.016869  -0.047149   0.523172  -0.026516   0.000369   4.863445
    19  H   -0.050452   0.006628   0.336884   0.000345  -0.000181  -0.043154
    20  C   -0.035661  -0.033634  -0.034981   0.549458   0.004836   0.551597
    21  H    0.003823  -0.039305   0.000810   0.356712  -0.005681   0.004646
    22  H    0.003615   0.000819  -0.039888   0.004618   0.000017   0.356279
    23  H    0.000744   0.004598   0.004769  -0.042981  -0.000180  -0.043047
              19         20         21         22         23
     1  C    0.003790   0.000015   0.000001   0.000001  -0.000000
     2  H   -0.002009  -0.000021   0.000000   0.000008  -0.000000
     3  N    0.003149  -0.000000  -0.000000  -0.000001   0.000000
     4  H    0.009508   0.000003   0.000000  -0.000008  -0.000000
     5  H    0.000551   0.000000   0.000000  -0.000000  -0.000000
     6  C    0.000090   0.000000  -0.000000  -0.000000  -0.000000
     7  O   -0.000001   0.000000   0.000000  -0.000000   0.000000
     8  O    0.000002   0.000000   0.000000   0.000000   0.000000
     9  H    0.000000  -0.000000  -0.000000  -0.000000  -0.000000
    10  C   -0.009705   0.000290  -0.000180  -0.000171   0.000008
    11  H   -0.000079  -0.000002  -0.000010   0.000002  -0.000000
    12  H    0.000124   0.000032   0.000003   0.000002  -0.000000
    13  C   -0.050452  -0.035661   0.003823   0.003615   0.000744
    14  C    0.006628  -0.033634  -0.039305   0.000819   0.004598
    15  C    0.336884  -0.034981   0.000810  -0.039888   0.004769
    16  C    0.000345   0.549458   0.356712   0.004618  -0.042981
    17  H   -0.000181   0.004836  -0.005681   0.000017  -0.000180
    18  C   -0.043154   0.551597   0.004646   0.356279  -0.043047
    19  H    0.639773   0.005079   0.000018  -0.006087  -0.000192
    20  C    0.005079   4.852302  -0.043564  -0.042616   0.358582
    21  H    0.000018  -0.043564   0.597999  -0.000192  -0.005541
    22  H   -0.006087  -0.042616  -0.000192   0.600527  -0.005517
    23  H   -0.000192   0.358582  -0.005541  -0.005517   0.599681
 Mulliken charges:
               1
     1  C   -0.051925
     2  H    0.154942
     3  N   -0.734915
     4  H    0.313304
     5  H    0.315846
     6  C    0.603426
     7  O   -0.459821
     8  O   -0.576477
     9  H    0.412517
    10  C   -0.375205
    11  H    0.184657
    12  H    0.175741
    13  C    0.170936
    14  C   -0.190704
    15  C   -0.181475
    16  C   -0.124418
    17  H    0.129874
    18  C   -0.128634
    19  H    0.105920
    20  C   -0.131715
    21  H    0.130459
    22  H    0.128591
    23  H    0.129078
 Sum of Mulliken charges =  -0.00000
 Mulliken charges with hydrogens summed into heavy atoms:
               1
     1  C    0.103017
     3  N   -0.105765
     6  C    0.603426
     7  O   -0.459821
     8  O   -0.163960
    10  C   -0.014807
    13  C    0.170936
    14  C   -0.060830
    15  C   -0.075555
    16  C    0.006041
    18  C   -0.000043
    20  C   -0.002638
 Electronic spatial extent (au):  <R**2>=           2684.9331
 Charge=             -0.0000 electrons
 Dipole moment (field-independent basis, Debye):
    X=              0.2973    Y=              1.7022    Z=             -1.2567  Tot=              2.1367
 Quadrupole moment (field-independent basis, Debye-Ang):
   XX=            -61.5630   YY=            -67.5809   ZZ=            -72.9834
   XY=             -3.0244   XZ=              3.4985   YZ=             -1.1681
 Traceless Quadrupole moment (field-independent basis, Debye-Ang):
   XX=              5.8127   YY=             -0.2051   ZZ=             -5.6076
   XY=             -3.0244   XZ=              3.4985   YZ=             -1.1681
 Octapole moment (field-independent basis, Debye-Ang**2):
  XXX=            -60.7791  YYY=             16.9909  ZZZ=             -4.0646  XYY=              7.0515
  XXY=             -0.4292  XXZ=            -28.4887  XZZ=            -16.4244  YZZ=             -3.8578
  YYZ=             -0.9744  XYZ=             -1.3616
 Hexadecapole moment (field-independent basis, Debye-Ang**3):
 XXXX=          -2274.1364 YYYY=           -514.5572 ZZZZ=           -172.4178 XXXY=             16.8091
 XXXZ=             54.3070 YYYX=            -39.1099 YYYZ=             -1.4628 ZZZX=             24.5472
 ZZZY=             -0.9984 XXYY=           -554.2363 XXZZ=           -500.5791 YYZZ=           -126.5938
 XXYZ=             -1.2010 YYXZ=              4.3148 ZZXY=             15.5660
 N-N= 6.624773111979D+02 E-N=-2.616815602903D+03  KE= 5.496124769316D+02
 Unable to Open any file for archive entry.
 1\1\GINC-CCC159\SP\RB3LYP TD-FC\6-31G(d)\C9H11N1O2\ROOT\21-Feb-2025\0\
 \# td=(nstat=3) b3lyp/6-31g(d)\\phe | No.14\\0,1\C,0,-1.427921,-0.3827
 3,0.02137\H,0,-1.043753,-0.591549,1.038023\N,0,-1.790463,-1.597688,-0.
 725727\H,0,-0.956224,-2.14924,-0.911651\H,0,-2.418188,-2.1739,-0.16925
 2\C,0,-2.704589,0.430394,0.245947\O,0,-2.844587,1.620472,0.079964\O,0,
 -3.702012,-0.356609,0.722891\H,0,-4.473677,0.227477,0.846297\C,0,-0.37
 046,0.440485,-0.738554\H,0,-0.609027,1.500428,-0.615793\H,0,-0.499258,
 0.2205,-1.807599\C,0,1.070581,0.209214,-0.317931\C,0,1.945236,1.301774
 ,-0.231621\C,0,1.579802,-1.061529,-0.012539\C,0,3.281935,1.133645,0.13
 0978\H,0,1.570126,2.298642,-0.452\C,0,2.914428,-1.236026,0.356736\H,0,
 0.931282,-1.933533,-0.051703\C,0,3.773156,-0.138502,0.426981\H,0,3.936
 973,1.999081,0.189894\H,0,3.282057,-2.232168,0.589533\H,0,4.812718,-0.
 273164,0.713296\\Version=ES64L-G16RevC.02\State=1-A\HF=-554.7807577\RM
 SD=4.489e-09\PG=C01 [X(C9H11N1O2)]\\@
 The archive entry for this job was punched.


 Time has a wonderful way of weeding out the trivial.
                                -- Richard Ben Sapir
 Job cpu time:       0 days  0 hours  8 minutes  4.5 seconds.
 Elapsed time:       0 days  0 hours  1 minutes  8.1 seconds.
 File lengths (MBytes):  RWF=    272 Int=      0 D2E=      0 Chk=      8 Scr=      1
 Normal termination of Gaussian 16 at Fri Feb 21 15:15:34 2025.
