 Entering Gaussian System, Link 0=/apl/gaussian/16c02/g16/._.g16
 Initial command:
 /apl/gaussian/16c02/g16/l1.exe "/lwork/users/ux8/8287076.ccpbs1/gaussian/Gau-547794.inp" -scrdir="/lwork/users/ux8/8287076.ccpbs1/gaussian/"
 Default CPUs for threads: 32,33,34,35,36,37,38,39
 Default is to use a total of   8 processors:
                                8 via shared-memory
                                1 via Linda
 Entering Link 1 = /apl/gaussian/16c02/g16/l1.exe PID=    547813.
  
 Copyright (c) 1988-2021, Gaussian, Inc.  All Rights Reserved.
  
 This is part of the Gaussian(R) 16 program.  It is based on
 the Gaussian(R) 09 system (copyright 2009, Gaussian, Inc.),
 the Gaussian(R) 03 system (copyright 2003, Gaussian, Inc.),
 the Gaussian(R) 98 system (copyright 1998, Gaussian, Inc.),
 the Gaussian(R) 94 system (copyright 1995, Gaussian, Inc.),
 the Gaussian 92(TM) system (copyright 1992, Gaussian, Inc.),
 the Gaussian 90(TM) system (copyright 1990, Gaussian, Inc.),
 the Gaussian 88(TM) system (copyright 1988, Gaussian, Inc.),
 the Gaussian 86(TM) system (copyright 1986, Carnegie Mellon
 University), and the Gaussian 82(TM) system (copyright 1983,
 Carnegie Mellon University). Gaussian is a federally registered
 trademark of Gaussian, Inc.
  
 This software contains proprietary and confidential information,
 including trade secrets, belonging to Gaussian, Inc.
  
 This software is provided under written license and may be
 used, copied, transmitted, or stored only in accord with that
 written license.
  
 The following legend is applicable only to US Government
 contracts under FAR:
  
                    RESTRICTED RIGHTS LEGEND
  
 Use, reproduction and disclosure by the US Government is
 subject to restrictions as set forth in subparagraphs (a)
 and (c) of the Commercial Computer Software - Restricted
 Rights clause in FAR 52.227-19.
  
 Gaussian, Inc.
 340 Quinnipiac St., Bldg. 40, Wallingford CT 06492
  
  
 ---------------------------------------------------------------
 Warning -- This program may not be used in any manner that
 competes with the business of Gaussian, Inc. or will provide
 assistance to any competitor of Gaussian, Inc.  The licensee
 of this program is prohibited from giving any competitor of
 Gaussian, Inc. access to this program.  By using this program,
 the user acknowledges that Gaussian, Inc. is engaged in the
 business of creating and licensing software in the field of
 computational chemistry and represents and warrants to the
 licensee that it is not a competitor of Gaussian, Inc. and that
 it will not use this program in any manner prohibited above.
 ---------------------------------------------------------------
  

 Cite this work as:
 Gaussian 16, Revision C.02,
 M. J. Frisch, G. W. Trucks, H. B. Schlegel, G. E. Scuseria, 
 M. A. Robb, J. R. Cheeseman, G. Scalmani, V. Barone, 
 G. A. Petersson, H. Nakatsuji, X. Li, M. Caricato, A. V. Marenich, 
 J. Bloino, B. G. Janesko, R. Gomperts, B. Mennucci, H. P. Hratchian, 
 J. V. Ortiz, A. F. Izmaylov, J. L. Sonnenberg, D. Williams-Young, 
 F. Ding, F. Lipparini, F. Egidi, J. Goings, B. Peng, A. Petrone, 
 T. Henderson, D. Ranasinghe, V. G. Zakrzewski, J. Gao, N. Rega, 
 G. Zheng, W. Liang, M. Hada, M. Ehara, K. Toyota, R. Fukuda, 
 J. Hasegawa, M. Ishida, T. Nakajima, Y. Honda, O. Kitao, H. Nakai, 
 T. Vreven, K. Throssell, J. A. Montgomery, Jr., J. E. Peralta, 
 F. Ogliaro, M. J. Bearpark, J. J. Heyd, E. N. Brothers, K. N. Kudin, 
 V. N. Staroverov, T. A. Keith, R. Kobayashi, J. Normand, 
 K. Raghavachari, A. P. Rendell, J. C. Burant, S. S. Iyengar, 
 J. Tomasi, M. Cossi, J. M. Millam, M. Klene, C. Adamo, R. Cammi, 
 J. W. Ochterski, R. L. Martin, K. Morokuma, O. Farkas, 
 J. B. Foresman, and D. J. Fox, Gaussian, Inc., Wallingford CT, 2019.
 
 ******************************************
 Gaussian 16:  ES64L-G16RevC.02  7-Dec-2021
                21-Feb-2025 
 ******************************************
 %chk=phe.017.tddft.chk
 %mem=9600MB
 SetSPE:  set environment variable "OMP_PROC_BIND" = "true"
 SetSPE:  set environment variable "OMP_PLACES" = "{32},{33},{34},{35},{36},{37},{38},{39}"
 -----------------------------
 # td=(nstat=3) b3lyp/6-31g(d)
 -----------------------------
 1/38=1,172=1/1;
 2/12=2,17=6,18=5,40=1/2;
 3/5=1,6=6,7=1,11=9,25=1,30=1,74=-5/1,2,3,8;
 4//1;
 5/5=2,38=5/2;
 8/6=1,10=2,108=3/1;
 9/41=3,42=1,70=2/14;
 6/7=2,8=2,9=2,10=2/1;
 99/5=1,9=1/99;
 -----------
 phe | No.17
 -----------
 Symbolic Z-matrix:
 Charge =  0 Multiplicity = 1
 C                    -1.40808  -0.14968   0.33503 
 H                    -1.23404   0.19317   1.37492 
 N                    -1.30759  -1.60602   0.19461 
 H                    -0.43257  -1.91442   0.6132 
 H                    -2.05915  -2.04826   0.71929 
 C                    -2.83032   0.30389   0.01525 
 O                    -3.13975   1.30041  -0.59684 
 O                    -3.75587  -0.52955   0.55754 
 H                    -4.62639  -0.15685   0.32215 
 C                    -0.40867   0.58943  -0.57881 
 H                    -0.60776   1.66135  -0.49657 
 H                    -0.63636   0.30086  -1.6118 
 C                     1.0485    0.30644  -0.2722 
 C                     1.85984   1.30174   0.28988 
 C                     1.64357  -0.92185  -0.60539 
 C                     3.21144   1.06985   0.55067 
 H                     1.42492   2.26988   0.52886 
 C                     2.99398  -1.15808  -0.34435 
 H                     1.04424  -1.68805  -1.08978 
 C                     3.78261  -0.16451   0.23908 
 H                     3.81893   1.85711   0.98977 
 H                     3.43357  -2.11624  -0.60994 
 H                     4.83552  -0.34672   0.43717 
 
                          Input orientation:                          
 ---------------------------------------------------------------------
 Center     Atomic      Atomic             Coordinates (Angstroms)
 Number     Number       Type             X           Y           Z
 ---------------------------------------------------------------------
      1          6           0       -1.408076   -0.149676    0.335026
      2          1           0       -1.234043    0.193169    1.374919
      3          7           0       -1.307586   -1.606016    0.194609
      4          1           0       -0.432572   -1.914423    0.613204
      5          1           0       -2.059149   -2.048258    0.719290
      6          6           0       -2.830319    0.303891    0.015251
      7          8           0       -3.139751    1.300406   -0.596840
      8          8           0       -3.755874   -0.529550    0.557536
      9          1           0       -4.626391   -0.156852    0.322145
     10          6           0       -0.408674    0.589427   -0.578807
     11          1           0       -0.607764    1.661354   -0.496567
     12          1           0       -0.636355    0.300857   -1.611795
     13          6           0        1.048499    0.306437   -0.272204
     14          6           0        1.859843    1.301743    0.289876
     15          6           0        1.643570   -0.921847   -0.605393
     16          6           0        3.211441    1.069851    0.550669
     17          1           0        1.424916    2.269879    0.528855
     18          6           0        2.993976   -1.158082   -0.344350
     19          1           0        1.044241   -1.688050   -1.089780
     20          6           0        3.782607   -0.164506    0.239080
     21          1           0        3.818933    1.857108    0.989769
     22          1           0        3.433565   -2.116240   -0.609935
     23          1           0        4.835517   -0.346716    0.437174
 ---------------------------------------------------------------------
                    Distance matrix (angstroms):
                    1          2          3          4          5
     1  C    0.000000
     2  H    1.108696   0.000000
     3  N    1.466541   2.153046   0.000000
     4  H    2.035515   2.380023   1.017834   0.000000
     5  H    2.043568   2.476821   1.017701   1.635518   0.000000
     6  C    1.526681   2.099775   2.449210   3.320791   2.573515
     7  O    2.443320   2.957284   3.525693   4.373574   3.756787
     8  O    2.388717   2.747739   2.699002   3.600737   2.282874
     9  H    3.218349   3.569156   3.623646   4.556522   3.213390
    10  C    1.542779   2.157614   2.495232   2.773216   3.371425
    11  H    2.147528   2.459726   3.412211   3.748128   4.164859
    12  H    2.142112   3.047833   2.711054   3.146365   3.602311
    13  C    2.571289   2.817063   3.070265   2.812426   4.023074
    14  C    3.576024   3.460980   4.300784   3.962756   5.173529
    15  C    3.285297   3.666818   3.133275   2.603949   4.090686
    16  C    4.782644   4.605463   5.263900   4.710481   6.126186
    17  H    3.730638   3.478306   4.754035   4.578838   5.551692
    18  C    4.566891   4.760033   4.358275   3.637333   5.240021
    19  H    3.226535   3.847636   2.680947   2.265475   3.610196
    20  C    5.191591   5.156049   5.290557   4.579292   6.156723
    21  H    5.637153   5.333817   6.237524   5.695748   7.062357
    22  H    5.310538   5.573112   4.835921   4.060026   5.651669
    23  H    6.247537   6.165258   6.275539   5.499223   7.107127
                    6          7          8          9         10
     6  C    0.000000
     7  O    1.209730   0.000000
     8  O    1.358436   2.249651   0.000000
     9  H    1.879453   2.275573   0.975763   0.000000
    10  C    2.509741   2.822162   3.707713   4.376961   0.000000
    11  H    2.654132   2.559550   3.977661   4.486148   1.093356
    12  H    2.731440   2.880317   3.889341   4.457579   1.096438
    13  C    3.889456   4.316804   4.946650   5.724706   1.515731
    14  C    4.802994   5.077618   5.912830   6.648291   2.531437
    15  C    4.680098   5.274338   5.537174   6.384196   2.548796
    16  C    6.113610   6.458140   7.148539   7.936538   3.822533
    17  H    4.715498   4.800339   5.888821   6.523041   2.722662
    18  C    6.015737   6.612906   6.838781   7.714705   3.832334
    19  H    4.494568   5.165235   5.205466   6.041040   2.749356
    20  C    6.633271   7.124870   7.554030   8.409412   4.336380
    21  H    6.897443   7.158947   7.953657   8.707770   4.684027
    22  H    6.744193   7.408247   7.454435   8.346908   4.699405
    23  H    7.704956   8.208964   8.594179   9.464512   5.423110
                   11         12         13         14         15
    11  H    0.000000
    12  H    1.759404   0.000000
    13  C    2.151591   2.152503   0.000000
    14  C    2.614746   3.293802   1.401730   0.000000
    15  C    3.428305   2.775952   1.404922   2.406789   0.000000
    16  C    4.004111   4.480305   2.436850   1.395924   2.785958
    17  H    2.356604   3.564866   2.153715   1.087915   3.394325
    18  C    4.576562   4.112690   2.436165   2.781949   1.395545
    19  H    3.781472   2.655683   2.155557   3.392273   1.086689
    20  C    4.811476   4.813473   2.821089   2.418571   2.421194
    21  H    4.673667   5.388844   3.416498   2.153210   3.872898
    22  H    5.533119   4.838422   3.416426   3.868962   2.151901
    23  H    5.876523   5.878691   3.907855   3.404960   3.406794
                   16         17         18         19         20
    16  C    0.000000
    17  H    2.152258   0.000000
    18  C    2.410816   3.869800   0.000000
    19  H    3.872189   4.293029   2.153601   0.000000
    20  C    1.395333   3.401310   1.396253   3.403778   0.000000
    21  H    1.087028   2.472679   3.398794   4.958990   2.156798
    22  H    3.398164   4.956768   1.087125   2.474362   2.156832
    23  H    2.158047   4.299671   2.158789   4.301690   1.086766
                   21         22         23
    21  H    0.000000
    22  H    4.300588   0.000000
    23  H    2.489105   2.488598   0.000000
 Stoichiometry    C9H11NO2
 Framework group  C1[X(C9H11NO2)]
 Deg. of freedom    63
 Full point group                 C1      NOp   1
 Largest Abelian subgroup         C1      NOp   1
 Largest concise Abelian subgroup C1      NOp   1
                         Standard orientation:                         
 ---------------------------------------------------------------------
 Center     Atomic      Atomic             Coordinates (Angstroms)
 Number     Number       Type             X           Y           Z
 ---------------------------------------------------------------------
      1          6           0       -1.408076    0.149676   -0.335026
      2          1           0       -1.234043   -0.193169   -1.374919
      3          7           0       -1.307586    1.606016   -0.194609
      4          1           0       -0.432572    1.914423   -0.613204
      5          1           0       -2.059149    2.048258   -0.719290
      6          6           0       -2.830319   -0.303891   -0.015251
      7          8           0       -3.139751   -1.300406    0.596840
      8          8           0       -3.755874    0.529550   -0.557536
      9          1           0       -4.626391    0.156852   -0.322145
     10          6           0       -0.408674   -0.589427    0.578807
     11          1           0       -0.607764   -1.661354    0.496567
     12          1           0       -0.636355   -0.300857    1.611795
     13          6           0        1.048499   -0.306437    0.272204
     14          6           0        1.859843   -1.301743   -0.289876
     15          6           0        1.643570    0.921847    0.605393
     16          6           0        3.211441   -1.069851   -0.550669
     17          1           0        1.424916   -2.269879   -0.528855
     18          6           0        2.993976    1.158082    0.344350
     19          1           0        1.044241    1.688050    1.089780
     20          6           0        3.782607    0.164506   -0.239080
     21          1           0        3.818933   -1.857108   -0.989769
     22          1           0        3.433565    2.116240    0.609935
     23          1           0        4.835517    0.346716   -0.437174
 ---------------------------------------------------------------------
 Rotational constants (GHZ):           2.5342631           0.4440144           0.4001821
 Standard basis: 6-31G(d) (6D, 7F)
 There are   202 symmetry adapted cartesian basis functions of A   symmetry.
 There are   202 symmetry adapted basis functions of A   symmetry.
   202 basis functions,   380 primitive gaussians,   202 cartesian basis functions
    44 alpha electrons       44 beta electrons
       nuclear repulsion energy       664.6294446503 Hartrees.
 NAtoms=   23 NActive=   23 NUniq=   23 SFac= 1.00D+00 NAtFMM=   60 NAOKFM=F Big=F
 Integral buffers will be    131072 words long.
 Regular integral format.
 Two-electron integral symmetry is turned on.
 One-electron integrals computed using PRISM.
 NBasis=   202 RedAO= T EigKep=  4.69D-04  NBF=   202
 NBsUse=   202 1.00D-06 EigRej= -1.00D+00 NBFU=   202
 ExpMin= 1.61D-01 ExpMax= 5.48D+03 ExpMxC= 8.25D+02 IAcc=3 IRadAn=         5 AccDes= 0.00D+00
 Harris functional with IExCor=  402 and IRadAn=       5 diagonalized for initial guess.
 HarFok:  IExCor=  402 AccDes= 0.00D+00 IRadAn=         5 IDoV= 1 UseB2=F ITyADJ=14
 ICtDFT=  3500011 ScaDFX=  1.000000  1.000000  1.000000  1.000000
 FoFCou: FMM=F IPFlag=           0 FMFlag=      100000 FMFlg1=           0
         NFxFlg=           0 DoJE=T BraDBF=F KetDBF=T FulRan=T
         wScrn=  0.000000 ICntrl=       500 IOpCl=  0 I1Cent=   200000004 NGrid=           0
         NMat0=    1 NMatS0=      1 NMatT0=    0 NMatD0=    1 NMtDS0=    0 NMtDT0=    0
 Petite list used in FoFCou.
 Requested convergence on RMS density matrix=1.00D-08 within 128 cycles.
 Requested convergence on MAX density matrix=1.00D-06.
 Requested convergence on             energy=1.00D-06.
 No special actions if energy rises.
 Integral accuracy reduced to 1.0D-05 until final iterations.
 Initial convergence to 1.0D-05 achieved.  Increase integral accuracy.
 SCF Done:  E(RB3LYP) =  -554.785336133     A.U. after   14 cycles
            NFock= 14  Conv=0.48D-08     -V/T= 2.0094
 DoSCS=F DFT=T ScalE2(SS,OS)=  1.000000  1.000000
 ExpMin= 1.61D-01 ExpMax= 5.48D+03 ExpMxC= 8.25D+02 IAcc=3 IRadAn=         5 AccDes= 0.00D+00
 HarFok:  IExCor=  205 AccDes= 0.00D+00 IRadAn=         5 IDoV=-2 UseB2=F ITyADJ=14
 ICtDFT= 12500011 ScaDFX=  1.000000  1.000000  1.000000  1.000000
 Range of M.O.s used for correlation:    13   202
 NBasis=   202 NAE=    44 NBE=    44 NFC=    12 NFV=     0
 NROrb=    190 NOA=    32 NOB=    32 NVA=   158 NVB=   158
 Keep R1, R2, and R3 ints in memory in canonical form, NReq=656629584.
 Orbital symmetries:
       Occupied  (A) (A) (A) (A) (A) (A) (A) (A) (A) (A) (A) (A)
                 (A) (A) (A) (A) (A) (A) (A) (A) (A) (A) (A) (A)
                 (A) (A) (A) (A) (A) (A) (A) (A) (A) (A) (A) (A)
                 (A) (A) (A) (A) (A) (A) (A) (A)
       Virtual   (A) (A) (A) (A) (A) (A) (A) (A) (A) (A) (A) (A)
                 (A) (A) (A) (A) (A) (A) (A) (A) (A) (A) (A) (A)
                 (A) (A) (A) (A) (A) (A) (A) (A) (A) (A) (A) (A)
                 (A) (A) (A) (A) (A) (A) (A) (A) (A) (A) (A) (A)
                 (A) (A) (A) (A) (A) (A) (A) (A) (A) (A) (A) (A)
                 (A) (A) (A) (A) (A) (A) (A) (A) (A) (A) (A) (A)
                 (A) (A) (A) (A) (A) (A) (A) (A) (A) (A) (A) (A)
                 (A) (A) (A) (A) (A) (A) (A) (A) (A) (A) (A) (A)
                 (A) (A) (A) (A) (A) (A) (A) (A) (A) (A) (A) (A)
                 (A) (A) (A) (A) (A) (A) (A) (A) (A) (A) (A) (A)
                 (A) (A) (A) (A) (A) (A) (A) (A) (A) (A) (A) (A)
                 (A) (A) (A) (A) (A) (A) (A) (A) (A) (A) (A) (A)
                 (A) (A) (A) (A) (A) (A) (A) (A) (A) (A) (A) (A)
                 (A) (A)
    12 initial guesses have been made.
 Convergence on wavefunction:    0.001000000000000
 Iteration     1 Dimension    12 NMult     0 NNew     12
 CISAX will form    12 AO SS matrices at one time.
 New state      1 was old state      2
 New state      2 was old state      3
 New state      3 was old state      4
 Iteration     2 Dimension    18 NMult    12 NNew      6
 Iteration     3 Dimension    24 NMult    18 NNew      6
 Iteration     4 Dimension    30 NMult    24 NNew      6
 Iteration     5 Dimension    36 NMult    30 NNew      6
 Iteration     6 Dimension    40 NMult    36 NNew      4
 Iteration     7 Dimension    42 NMult    40 NNew      2
 Iteration     8 Dimension    44 NMult    42 NNew      2
 Iteration     9 Dimension    46 NMult    44 NNew      2
 ***********************************************************************
 Excited states from <AA,BB:AA,BB> singles matrix:
 ***********************************************************************
 
 Ground to excited state transition densities written to RWF  633
 Ground to excited state transition electric dipole moments (Au):
       state          X           Y           Z        Dip. S.      Osc.
         1        -0.0204     -0.0858     -0.0073      0.0078      0.0010
         2        -0.1057     -0.0189      0.0728      0.0168      0.0023
         3         0.2728      0.0267      0.0230      0.0757      0.0108
 Ground to excited state transition velocity dipole moments (Au):
       state          X           Y           Z        Dip. S.      Osc.
         1         0.0043      0.0174      0.0039      0.0003      0.0011
         2         0.0129      0.0032     -0.0153      0.0004      0.0013
         3        -0.0575     -0.0078     -0.0082      0.0034      0.0107
 Ground to excited state transition magnetic dipole moments (Au):
       state          X           Y           Z
         1         0.0701     -0.0409      0.2389
         2         0.2750      0.1873     -0.0192
         3        -0.0451     -0.2342     -0.1435
 Ground to excited state transition velocity quadrupole moments (Au):
       state          XX          YY          ZZ          XY          XZ          YZ
         1         0.0141      0.0059     -0.0127      0.0711      0.0284      0.0140
         2        -0.2377     -0.0109      0.0974     -0.0800      0.0635      0.0949
         3        -0.3346      0.0219      0.0627     -0.0948     -0.0096     -0.0370
 <0|del|b> * <b|rxdel|0> + <0|del|b> * <b|delr+rdel|0>
 Rotatory Strengths (R) in cgs (10**-40 erg-esu-cm/Gauss)
       state          XX          YY          ZZ    R(velocity)    E-M Angle
         1        -0.0264      1.8014      0.0451      0.6067       83.67
         2         3.3263      6.6251      5.4146      5.1220       48.97
         3         6.1683      8.4876      3.9452      6.2004       69.89
 1/2[<0|r|b>*<b|rxdel|0> + (<0|rxdel|b>*<b|r|0>)*]
 Rotatory Strengths (R) in cgs (10**-40 erg-esu-cm/Gauss)
       state          XX          YY          ZZ     R(length)
         1         1.0091     -2.4827      1.2322     -0.0805
         2        20.5575      2.5000      0.9877      8.0151
         3         8.7030      4.4148      2.3296      5.1492
  1/2[<0|del|b>*<b|r|0> + (<0|r|b>*<b|del|0>)*] (Au)
       state          X           Y           Z        Dip. S.   Osc.(frdel)
         1        -0.0001     -0.0015     -0.0000      0.0016      0.0011
         2        -0.0014     -0.0001     -0.0011      0.0025      0.0017
         3        -0.0157     -0.0002     -0.0002      0.0161      0.0107

 Excitation energies and oscillator strengths:
 
 Excited State   1:      Singlet-A      5.4022 eV  229.51 nm  f=0.0010  <S**2>=0.000
      42 -> 45        -0.16987
      42 -> 46        -0.28875
      42 -> 47         0.14260
      43 -> 45         0.33568
      44 -> 45        -0.34083
      44 -> 46         0.34200
      44 -> 47        -0.10394
 This state for optimization and/or second-order correction.
 Total Energy, E(TD-HF/TD-DFT) =  -554.586807737    
 Copying the excited state density for this state as the 1-particle RhoCI density.
 
 Excited State   2:      Singlet-A      5.5578 eV  223.08 nm  f=0.0023  <S**2>=0.000
      41 -> 46         0.11557
      41 -> 47         0.25131
      42 -> 46         0.19233
      42 -> 47         0.21742
      43 -> 46         0.19153
      43 -> 47         0.32700
      44 -> 46         0.20296
      44 -> 47         0.38579
 
 Excited State   3:      Singlet-A      5.8084 eV  213.46 nm  f=0.0108  <S**2>=0.000
      41 -> 47        -0.14575
      42 -> 45         0.18216
      43 -> 45         0.37319
      44 -> 45         0.46132
      44 -> 46         0.27261
 SavETr:  write IOETrn=   770 NScale= 10 NData=  16 NLR=1 NState=    3 LETran=      64.

 **********************************************************************

            Population analysis using the SCF Density.

 **********************************************************************

 Orbital symmetries:
       Occupied  (A) (A) (A) (A) (A) (A) (A) (A) (A) (A) (A) (A)
                 (A) (A) (A) (A) (A) (A) (A) (A) (A) (A) (A) (A)
                 (A) (A) (A) (A) (A) (A) (A) (A) (A) (A) (A) (A)
                 (A) (A) (A) (A) (A) (A) (A) (A)
       Virtual   (A) (A) (A) (A) (A) (A) (A) (A) (A) (A) (A) (A)
                 (A) (A) (A) (A) (A) (A) (A) (A) (A) (A) (A) (A)
                 (A) (A) (A) (A) (A) (A) (A) (A) (A) (A) (A) (A)
                 (A) (A) (A) (A) (A) (A) (A) (A) (A) (A) (A) (A)
                 (A) (A) (A) (A) (A) (A) (A) (A) (A) (A) (A) (A)
                 (A) (A) (A) (A) (A) (A) (A) (A) (A) (A) (A) (A)
                 (A) (A) (A) (A) (A) (A) (A) (A) (A) (A) (A) (A)
                 (A) (A) (A) (A) (A) (A) (A) (A) (A) (A) (A) (A)
                 (A) (A) (A) (A) (A) (A) (A) (A) (A) (A) (A) (A)
                 (A) (A) (A) (A) (A) (A) (A) (A) (A) (A) (A) (A)
                 (A) (A) (A) (A) (A) (A) (A) (A) (A) (A) (A) (A)
                 (A) (A) (A) (A) (A) (A) (A) (A) (A) (A) (A) (A)
                 (A) (A) (A) (A) (A) (A) (A) (A) (A) (A) (A) (A)
                 (A) (A)
 The electronic state is 1-A.
 Alpha  occ. eigenvalues --  -19.20369 -19.14546 -14.32010 -10.32460 -10.23549
 Alpha  occ. eigenvalues --  -10.19575 -10.18906 -10.18891 -10.18784 -10.18721
 Alpha  occ. eigenvalues --  -10.18697 -10.18529  -1.11147  -1.02071  -0.89695
 Alpha  occ. eigenvalues --   -0.85105  -0.77596  -0.74132  -0.72776  -0.66986
 Alpha  occ. eigenvalues --   -0.60299  -0.59928  -0.56826  -0.51658  -0.50278
 Alpha  occ. eigenvalues --   -0.49444  -0.48837  -0.46223  -0.45112  -0.44119
 Alpha  occ. eigenvalues --   -0.42565  -0.41604  -0.41076  -0.39204  -0.38414
 Alpha  occ. eigenvalues --   -0.36857  -0.35122  -0.33669  -0.33415  -0.32472
 Alpha  occ. eigenvalues --   -0.28142  -0.24893  -0.24738  -0.23839
 Alpha virt. eigenvalues --   -0.00211   0.00005   0.00371   0.06668   0.09453
 Alpha virt. eigenvalues --    0.11034   0.12581   0.13856   0.14430   0.16160
 Alpha virt. eigenvalues --    0.16499   0.16700   0.18111   0.19381   0.20109
 Alpha virt. eigenvalues --    0.22344   0.23025   0.25652   0.26074   0.30727
 Alpha virt. eigenvalues --    0.31746   0.32539   0.33330   0.35621   0.38697
 Alpha virt. eigenvalues --    0.46675   0.52531   0.52888   0.54172   0.55268
 Alpha virt. eigenvalues --    0.55516   0.56044   0.57469   0.59151   0.59885
 Alpha virt. eigenvalues --    0.60351   0.60704   0.61324   0.61653   0.62525
 Alpha virt. eigenvalues --    0.65511   0.66086   0.66757   0.67692   0.70891
 Alpha virt. eigenvalues --    0.72054   0.73352   0.74792   0.77113   0.80647
 Alpha virt. eigenvalues --    0.81786   0.82401   0.84000   0.84287   0.85090
 Alpha virt. eigenvalues --    0.85871   0.87147   0.88911   0.90708   0.91482
 Alpha virt. eigenvalues --    0.92489   0.94223   0.94685   0.95581   0.98194
 Alpha virt. eigenvalues --    0.98800   1.00433   1.01360   1.04049   1.07875
 Alpha virt. eigenvalues --    1.09847   1.11638   1.12794   1.13323   1.16832
 Alpha virt. eigenvalues --    1.18581   1.22419   1.23194   1.28241   1.30431
 Alpha virt. eigenvalues --    1.37582   1.39366   1.42615   1.44114   1.46566
 Alpha virt. eigenvalues --    1.48950   1.49578   1.51483   1.51894   1.57105
 Alpha virt. eigenvalues --    1.58351   1.59334   1.66498   1.68256   1.74821
 Alpha virt. eigenvalues --    1.75866   1.77982   1.78831   1.80794   1.82426
 Alpha virt. eigenvalues --    1.83322   1.85650   1.89224   1.91699   1.92455
 Alpha virt. eigenvalues --    1.94713   1.95501   1.97825   1.98817   2.00445
 Alpha virt. eigenvalues --    2.04189   2.05710   2.08166   2.12694   2.14179
 Alpha virt. eigenvalues --    2.15157   2.16270   2.21232   2.21797   2.27736
 Alpha virt. eigenvalues --    2.30982   2.32449   2.34465   2.35535   2.39399
 Alpha virt. eigenvalues --    2.39773   2.42909   2.52180   2.54772   2.58203
 Alpha virt. eigenvalues --    2.58790   2.62433   2.63390   2.65507   2.67571
 Alpha virt. eigenvalues --    2.72897   2.74572   2.75699   2.77023   2.78845
 Alpha virt. eigenvalues --    2.85525   2.92673   2.98674   3.05345   3.11522
 Alpha virt. eigenvalues --    3.40901   3.79722   3.84166   4.09114   4.11883
 Alpha virt. eigenvalues --    4.13492   4.13721   4.24048   4.33669   4.39337
 Alpha virt. eigenvalues --    4.42421   4.61668   4.70605
          Condensed to atoms (all electrons):
               1          2          3          4          5          6
     1  C    5.125429   0.351873   0.277424  -0.026829  -0.027273   0.296978
     2  H    0.351873   0.632646  -0.044613  -0.006565  -0.001531  -0.035284
     3  N    0.277424  -0.044613   7.005753   0.288017   0.299002  -0.032694
     4  H   -0.026829  -0.006565   0.288017   0.447916  -0.025854   0.004845
     5  H   -0.027273  -0.001531   0.299002  -0.025854   0.428500  -0.012882
     6  C    0.296978  -0.035284  -0.032694   0.004845  -0.012882   4.362161
     7  O   -0.080193   0.000794   0.001359  -0.000089   0.000155   0.569766
     8  O   -0.092443  -0.000405  -0.003143   0.000083   0.014089   0.280100
     9  H    0.010906  -0.000525  -0.000228   0.000035  -0.000422  -0.007077
    10  C    0.336509  -0.056011  -0.062419  -0.003459   0.006069  -0.030841
    11  H   -0.030361   0.000880   0.004543  -0.000195  -0.000212  -0.004342
    12  H   -0.037870   0.006652   0.001814  -0.000186  -0.000038  -0.005812
    13  C   -0.031300  -0.001690  -0.008018   0.006109   0.000118   0.004351
    14  C   -0.001826   0.001790   0.000011  -0.000030  -0.000004  -0.000070
    15  C   -0.005290   0.001064  -0.003934   0.009487   0.000022   0.000015
    16  C   -0.000147  -0.000096   0.000011  -0.000021  -0.000000   0.000002
    17  H    0.000278   0.000250   0.000007  -0.000007  -0.000000  -0.000029
    18  C    0.000051  -0.000006   0.000030   0.000094  -0.000004   0.000002
    19  H   -0.000837   0.000431   0.008866  -0.002813   0.000011  -0.000132
    20  C    0.000017  -0.000003   0.000002  -0.000048   0.000000  -0.000000
    21  H    0.000000   0.000001   0.000000   0.000000   0.000000  -0.000000
    22  H   -0.000002  -0.000000  -0.000002   0.000008   0.000000  -0.000000
    23  H    0.000000  -0.000000   0.000000  -0.000000  -0.000000   0.000000
               7          8          9         10         11         12
     1  C   -0.080193  -0.092443   0.010906   0.336509  -0.030361  -0.037870
     2  H    0.000794  -0.000405  -0.000525  -0.056011   0.000880   0.006652
     3  N    0.001359  -0.003143  -0.000228  -0.062419   0.004543   0.001814
     4  H   -0.000089   0.000083   0.000035  -0.003459  -0.000195  -0.000186
     5  H    0.000155   0.014089  -0.000422   0.006069  -0.000212  -0.000038
     6  C    0.569766   0.280100  -0.007077  -0.030841  -0.004342  -0.005812
     7  O    8.029925  -0.084100   0.011649   0.001736   0.008781   0.002070
     8  O   -0.084100   8.248503   0.217016   0.002557   0.000162   0.000002
     9  H    0.011649   0.217016   0.356426  -0.000245  -0.000022  -0.000019
    10  C    0.001736   0.002557  -0.000245   5.213890   0.348740   0.356248
    11  H    0.008781   0.000162  -0.000022   0.348740   0.564006  -0.027528
    12  H    0.002070   0.000002  -0.000019   0.356248  -0.027528   0.565444
    13  C    0.000753  -0.000017   0.000001   0.333808  -0.034221  -0.029159
    14  C   -0.000015  -0.000000   0.000000  -0.045835  -0.005717   0.002310
    15  C   -0.000001  -0.000001   0.000000  -0.061500   0.004931  -0.004567
    16  C   -0.000000  -0.000000   0.000000   0.006986   0.000248  -0.000233
    17  H   -0.000003   0.000000  -0.000000  -0.010317   0.006883   0.000103
    18  C   -0.000000  -0.000000   0.000000   0.005878  -0.000143   0.000084
    19  H    0.000001   0.000000  -0.000000  -0.007688   0.000081   0.003998
    20  C    0.000000   0.000000  -0.000000   0.000369   0.000000   0.000028
    21  H    0.000000   0.000000  -0.000000  -0.000178  -0.000011   0.000003
    22  H   -0.000000   0.000000  -0.000000  -0.000170   0.000003  -0.000004
    23  H    0.000000  -0.000000  -0.000000   0.000006  -0.000000  -0.000000
              13         14         15         16         17         18
     1  C   -0.031300  -0.001826  -0.005290  -0.000147   0.000278   0.000051
     2  H   -0.001690   0.001790   0.001064  -0.000096   0.000250  -0.000006
     3  N   -0.008018   0.000011  -0.003934   0.000011   0.000007   0.000030
     4  H    0.006109  -0.000030   0.009487  -0.000021  -0.000007   0.000094
     5  H    0.000118  -0.000004   0.000022  -0.000000  -0.000000  -0.000004
     6  C    0.004351  -0.000070   0.000015   0.000002  -0.000029   0.000002
     7  O    0.000753  -0.000015  -0.000001  -0.000000  -0.000003  -0.000000
     8  O   -0.000017  -0.000000  -0.000001  -0.000000   0.000000  -0.000000
     9  H    0.000001   0.000000   0.000000   0.000000  -0.000000   0.000000
    10  C    0.333808  -0.045835  -0.061500   0.006986  -0.010317   0.005878
    11  H   -0.034221  -0.005717   0.004931   0.000248   0.006883  -0.000143
    12  H   -0.029159   0.002310  -0.004567  -0.000233   0.000103   0.000084
    13  C    4.677129   0.555267   0.534062  -0.020841  -0.043635  -0.023034
    14  C    0.555267   4.964513  -0.043791   0.518494   0.353215  -0.046071
    15  C    0.534062  -0.043791   5.011921  -0.047531   0.006562   0.514968
    16  C   -0.020841   0.518494  -0.047531   4.873202  -0.046518  -0.026542
    17  H   -0.043635   0.353215   0.006562  -0.046518   0.608052   0.000338
    18  C   -0.023034  -0.046071   0.514968  -0.026542   0.000338   4.878966
    19  H   -0.044855   0.005657   0.351582   0.000366  -0.000175  -0.042239
    20  C   -0.033662  -0.035831  -0.035254   0.551321   0.004853   0.549307
    21  H    0.003845  -0.039496   0.000761   0.356422  -0.005704   0.004648
    22  H    0.003608   0.000842  -0.039659   0.004613   0.000017   0.356629
    23  H    0.000624   0.004762   0.004730  -0.043247  -0.000180  -0.043474
              19         20         21         22         23
     1  C   -0.000837   0.000017   0.000000  -0.000002   0.000000
     2  H    0.000431  -0.000003   0.000001  -0.000000  -0.000000
     3  N    0.008866   0.000002   0.000000  -0.000002   0.000000
     4  H   -0.002813  -0.000048   0.000000   0.000008  -0.000000
     5  H    0.000011   0.000000   0.000000   0.000000  -0.000000
     6  C   -0.000132  -0.000000  -0.000000  -0.000000   0.000000
     7  O    0.000001   0.000000   0.000000  -0.000000   0.000000
     8  O    0.000000   0.000000   0.000000   0.000000  -0.000000
     9  H   -0.000000  -0.000000  -0.000000  -0.000000  -0.000000
    10  C   -0.007688   0.000369  -0.000178  -0.000170   0.000006
    11  H    0.000081   0.000000  -0.000011   0.000003  -0.000000
    12  H    0.003998   0.000028   0.000003  -0.000004  -0.000000
    13  C   -0.044855  -0.033662   0.003845   0.003608   0.000624
    14  C    0.005657  -0.035831  -0.039496   0.000842   0.004762
    15  C    0.351582  -0.035254   0.000761  -0.039659   0.004730
    16  C    0.000366   0.551321   0.356422   0.004613  -0.043247
    17  H   -0.000175   0.004853  -0.005704   0.000017  -0.000180
    18  C   -0.042239   0.549307   0.004648   0.356629  -0.043474
    19  H    0.578097   0.004512   0.000016  -0.005342  -0.000167
    20  C    0.004512   4.851976  -0.043490  -0.043012   0.359149
    21  H    0.000016  -0.043490   0.599533  -0.000190  -0.005604
    22  H   -0.005342  -0.043012  -0.000190   0.598512  -0.005575
    23  H   -0.000167   0.359149  -0.005604  -0.005575   0.600283
 Mulliken charges:
               1
     1  C   -0.065092
     2  H    0.150349
     3  N   -0.731788
     4  H    0.309503
     5  H    0.320256
     6  C    0.610943
     7  O   -0.462589
     8  O   -0.582402
     9  H    0.412504
    10  C   -0.334135
    11  H    0.163494
    12  H    0.166660
    13  C    0.150758
    14  C   -0.188175
    15  C   -0.198576
    16  C   -0.126489
    17  H    0.126008
    18  C   -0.129481
    19  H    0.150631
    20  C   -0.130234
    21  H    0.129443
    22  H    0.129724
    23  H    0.128692
 Sum of Mulliken charges =  -0.00000
 Mulliken charges with hydrogens summed into heavy atoms:
               1
     1  C    0.085256
     3  N   -0.102030
     6  C    0.610943
     7  O   -0.462589
     8  O   -0.169899
    10  C   -0.003981
    13  C    0.150758
    14  C   -0.062167
    15  C   -0.047945
    16  C    0.002954
    18  C    0.000242
    20  C   -0.001542
 Electronic spatial extent (au):  <R**2>=           2678.3416
 Charge=             -0.0000 electrons
 Dipole moment (field-independent basis, Debye):
    X=              0.0210    Y=              1.0015    Z=             -1.9603  Tot=              2.2014
 Quadrupole moment (field-independent basis, Debye-Ang):
   XX=            -60.0268   YY=            -69.6169   ZZ=            -71.6615
   XY=             -2.7884   XZ=              2.7679   YZ=              1.3844
 Traceless Quadrupole moment (field-independent basis, Debye-Ang):
   XX=              7.0749   YY=             -2.5152   ZZ=             -4.5597
   XY=             -2.7884   XZ=              2.7679   YZ=              1.3844
 Octapole moment (field-independent basis, Debye-Ang**2):
  XXX=            -68.9957  YYY=              6.2038  ZZZ=             -0.5581  XYY=              6.4994
  XXY=             15.5313  XXZ=            -18.0071  XZZ=            -14.6688  YZZ=              1.7852
  YYZ=             -9.2598  XYZ=              1.8693
 Hexadecapole moment (field-independent basis, Debye-Ang**3):
 XXXX=          -2259.8456 YYYY=           -478.2126 ZZZZ=           -175.2810 XXXY=            -30.1907
 XXXZ=              7.9803 YYYX=            -12.1434 YYYZ=             -6.3517 ZZZX=              3.0594
 ZZZY=             -5.9752 XXYY=           -559.1194 XXZZ=           -516.8237 YYZZ=           -111.0645
 XXYZ=             33.9991 YYXZ=             15.0605 ZZXY=             -2.5017
 N-N= 6.646294446503D+02 E-N=-2.621193920569D+03  KE= 5.496214659616D+02
 Unable to Open any file for archive entry.
 1\1\GINC-CCC179\SP\RB3LYP TD-FC\6-31G(d)\C9H11N1O2\ROOT\21-Feb-2025\0\
 \# td=(nstat=3) b3lyp/6-31g(d)\\phe | No.17\\0,1\C,0,-1.408076,-0.1496
 76,0.335026\H,0,-1.234043,0.193169,1.374919\N,0,-1.307586,-1.606016,0.
 194609\H,0,-0.432572,-1.914423,0.613204\H,0,-2.059149,-2.048258,0.7192
 9\C,0,-2.830319,0.303891,0.015251\O,0,-3.139751,1.300406,-0.59684\O,0,
 -3.755874,-0.52955,0.557536\H,0,-4.626391,-0.156852,0.322145\C,0,-0.40
 8674,0.589427,-0.578807\H,0,-0.607764,1.661354,-0.496567\H,0,-0.636355
 ,0.300857,-1.611795\C,0,1.048499,0.306437,-0.272204\C,0,1.859843,1.301
 743,0.289876\C,0,1.64357,-0.921847,-0.605393\C,0,3.211441,1.069851,0.5
 50669\H,0,1.424916,2.269879,0.528855\C,0,2.993976,-1.158082,-0.34435\H
 ,0,1.044241,-1.68805,-1.08978\C,0,3.782607,-0.164506,0.23908\H,0,3.818
 933,1.857108,0.989769\H,0,3.433565,-2.11624,-0.609935\H,0,4.835517,-0.
 346716,0.437174\\Version=ES64L-G16RevC.02\State=1-A\HF=-554.7853361\RM
 SD=4.755e-09\PG=C01 [X(C9H11N1O2)]\\@
 The archive entry for this job was punched.


 ... I FELL INTO A REVERIE ... THE ATOMS WERE GAMBOLING BEFORE MY EYES
 ... I SAW HOW TWO SMALL ONES UNITED TO FORM A PAIR;
 HOW THE LARGER ONES SEIZED TWO OF THE SMALLER ONES;
 HOW STILL LARGER ONES KEPT HOLD OF THREE OR FOUR
 SMALLER ONES ... I SAW HOW THE LARGER ONES FORMED A CHAIN ...
 THIS WAS THE ORIGIN OF THE STRUCTURE THEORY.

                                   -- C.F.KEKULE VON STRADONITZ
 Job cpu time:       0 days  0 hours 17 minutes 42.3 seconds.
 Elapsed time:       0 days  0 hours  2 minutes 19.5 seconds.
 File lengths (MBytes):  RWF=    272 Int=      0 D2E=      0 Chk=      8 Scr=      1
 Normal termination of Gaussian 16 at Fri Feb 21 15:16:42 2025.
