 Entering Gaussian System, Link 0=/apl/gaussian/16c02/g16/._.g16
 Initial command:
 /apl/gaussian/16c02/g16/l1.exe "/lwork/users/ux8/8287069.ccpbs1/gaussian/Gau-945352.inp" -scrdir="/lwork/users/ux8/8287069.ccpbs1/gaussian/"
 Default CPUs for threads: 32,33,34,35,36,37,38,39
 Default is to use a total of   8 processors:
                                8 via shared-memory
                                1 via Linda
 Entering Link 1 = /apl/gaussian/16c02/g16/l1.exe PID=    945353.
  
 Copyright (c) 1988-2021, Gaussian, Inc.  All Rights Reserved.
  
 This is part of the Gaussian(R) 16 program.  It is based on
 the Gaussian(R) 09 system (copyright 2009, Gaussian, Inc.),
 the Gaussian(R) 03 system (copyright 2003, Gaussian, Inc.),
 the Gaussian(R) 98 system (copyright 1998, Gaussian, Inc.),
 the Gaussian(R) 94 system (copyright 1995, Gaussian, Inc.),
 the Gaussian 92(TM) system (copyright 1992, Gaussian, Inc.),
 the Gaussian 90(TM) system (copyright 1990, Gaussian, Inc.),
 the Gaussian 88(TM) system (copyright 1988, Gaussian, Inc.),
 the Gaussian 86(TM) system (copyright 1986, Carnegie Mellon
 University), and the Gaussian 82(TM) system (copyright 1983,
 Carnegie Mellon University). Gaussian is a federally registered
 trademark of Gaussian, Inc.
  
 This software contains proprietary and confidential information,
 including trade secrets, belonging to Gaussian, Inc.
  
 This software is provided under written license and may be
 used, copied, transmitted, or stored only in accord with that
 written license.
  
 The following legend is applicable only to US Government
 contracts under FAR:
  
                    RESTRICTED RIGHTS LEGEND
  
 Use, reproduction and disclosure by the US Government is
 subject to restrictions as set forth in subparagraphs (a)
 and (c) of the Commercial Computer Software - Restricted
 Rights clause in FAR 52.227-19.
  
 Gaussian, Inc.
 340 Quinnipiac St., Bldg. 40, Wallingford CT 06492
  
  
 ---------------------------------------------------------------
 Warning -- This program may not be used in any manner that
 competes with the business of Gaussian, Inc. or will provide
 assistance to any competitor of Gaussian, Inc.  The licensee
 of this program is prohibited from giving any competitor of
 Gaussian, Inc. access to this program.  By using this program,
 the user acknowledges that Gaussian, Inc. is engaged in the
 business of creating and licensing software in the field of
 computational chemistry and represents and warrants to the
 licensee that it is not a competitor of Gaussian, Inc. and that
 it will not use this program in any manner prohibited above.
 ---------------------------------------------------------------
  

 Cite this work as:
 Gaussian 16, Revision C.02,
 M. J. Frisch, G. W. Trucks, H. B. Schlegel, G. E. Scuseria, 
 M. A. Robb, J. R. Cheeseman, G. Scalmani, V. Barone, 
 G. A. Petersson, H. Nakatsuji, X. Li, M. Caricato, A. V. Marenich, 
 J. Bloino, B. G. Janesko, R. Gomperts, B. Mennucci, H. P. Hratchian, 
 J. V. Ortiz, A. F. Izmaylov, J. L. Sonnenberg, D. Williams-Young, 
 F. Ding, F. Lipparini, F. Egidi, J. Goings, B. Peng, A. Petrone, 
 T. Henderson, D. Ranasinghe, V. G. Zakrzewski, J. Gao, N. Rega, 
 G. Zheng, W. Liang, M. Hada, M. Ehara, K. Toyota, R. Fukuda, 
 J. Hasegawa, M. Ishida, T. Nakajima, Y. Honda, O. Kitao, H. Nakai, 
 T. Vreven, K. Throssell, J. A. Montgomery, Jr., J. E. Peralta, 
 F. Ogliaro, M. J. Bearpark, J. J. Heyd, E. N. Brothers, K. N. Kudin, 
 V. N. Staroverov, T. A. Keith, R. Kobayashi, J. Normand, 
 K. Raghavachari, A. P. Rendell, J. C. Burant, S. S. Iyengar, 
 J. Tomasi, M. Cossi, J. M. Millam, M. Klene, C. Adamo, R. Cammi, 
 J. W. Ochterski, R. L. Martin, K. Morokuma, O. Farkas, 
 J. B. Foresman, and D. J. Fox, Gaussian, Inc., Wallingford CT, 2019.
 
 ******************************************
 Gaussian 16:  ES64L-G16RevC.02  7-Dec-2021
                21-Feb-2025 
 ******************************************
 %chk=phe.010.tddft.chk
 %mem=9600MB
 SetSPE:  set environment variable "OMP_PROC_BIND" = "true"
 SetSPE:  set environment variable "OMP_PLACES" = "{32},{33},{34},{35},{36},{37},{38},{39}"
 -----------------------------
 # td=(nstat=3) b3lyp/6-31g(d)
 -----------------------------
 1/38=1,172=1/1;
 2/12=2,17=6,18=5,40=1/2;
 3/5=1,6=6,7=1,11=9,25=1,30=1,74=-5/1,2,3,8;
 4//1;
 5/5=2,38=5/2;
 8/6=1,10=2,108=3/1;
 9/41=3,42=1,70=2/14;
 6/7=2,8=2,9=2,10=2/1;
 99/5=1,9=1/99;
 -----------
 phe | No.10
 -----------
 Symbolic Z-matrix:
 Charge =  0 Multiplicity = 1
 C                    -1.4347   -0.32948   0.04064 
 H                    -1.20276  -0.8043    1.01465 
 N                    -1.51603  -1.28138  -1.07456 
 H                    -0.59942  -1.6904   -1.24099 
 H                    -2.15514  -2.03874  -0.84493 
 C                    -2.80977   0.305     0.2404 
 O                    -3.04255   1.47913   0.41653 
 O                    -3.78555  -0.63796   0.24875 
 H                    -4.62436  -0.15898   0.38635 
 C                    -0.38269   0.74618  -0.23887 
 H                    -0.58194   1.59444   0.42546 
 H                    -0.55061   1.1161   -1.25847 
 C                     1.07094   0.32532  -0.08078 
 C                     2.06923   1.2819   -0.3277 
 C                     1.47655  -0.94944   0.33428 
 C                     3.4194    0.9754   -0.17793 
 H                     1.77691   2.28139  -0.64324 
 C                     2.83108  -1.26292   0.48565 
 H                     0.73838  -1.71718   0.5502 
 C                     3.80804  -0.30369   0.22976 
 H                     4.17007   1.73597  -0.37686 
 H                     3.1169   -2.26111   0.80744 
 H                     4.8606   -0.54649   0.34733 
 
                          Input orientation:                          
 ---------------------------------------------------------------------
 Center     Atomic      Atomic             Coordinates (Angstroms)
 Number     Number       Type             X           Y           Z
 ---------------------------------------------------------------------
      1          6           0       -1.434695   -0.329482    0.040639
      2          1           0       -1.202763   -0.804304    1.014650
      3          7           0       -1.516031   -1.281382   -1.074559
      4          1           0       -0.599419   -1.690398   -1.240991
      5          1           0       -2.155143   -2.038737   -0.844927
      6          6           0       -2.809770    0.304998    0.240396
      7          8           0       -3.042553    1.479127    0.416526
      8          8           0       -3.785552   -0.637960    0.248754
      9          1           0       -4.624361   -0.158975    0.386349
     10          6           0       -0.382693    0.746181   -0.238868
     11          1           0       -0.581936    1.594439    0.425460
     12          1           0       -0.550607    1.116095   -1.258466
     13          6           0        1.070940    0.325322   -0.080777
     14          6           0        2.069233    1.281904   -0.327702
     15          6           0        1.476545   -0.949436    0.334283
     16          6           0        3.419399    0.975396   -0.177926
     17          1           0        1.776911    2.281393   -0.643244
     18          6           0        2.831076   -1.262919    0.485652
     19          1           0        0.738380   -1.717175    0.550195
     20          6           0        3.808036   -0.303692    0.229760
     21          1           0        4.170067    1.735971   -0.376862
     22          1           0        3.116900   -2.261109    0.807438
     23          1           0        4.860604   -0.546490    0.347332
 ---------------------------------------------------------------------
                    Distance matrix (angstroms):
                    1          2          3          4          5
     1  C    0.000000
     2  H    1.108127   0.000000
     3  N    1.468467   2.165764   0.000000
     4  H    2.047524   2.497419   1.017434   0.000000
     5  H    2.055438   2.426701   1.017242   1.642706   0.000000
     6  C    1.527514   2.100593   2.432996   3.325923   2.664499
     7  O    2.448993   2.992764   3.489128   4.331530   3.841110
     8  O    2.380126   2.699086   2.704787   3.671295   2.411752
     9  H    3.212874   3.538156   3.613276   4.603656   3.338650
    10  C    1.530321   2.155882   2.468572   2.643509   3.356286
    11  H    2.139336   2.546868   3.375342   3.683411   4.157984
    12  H    2.135176   3.046358   2.591093   2.806972   3.563498
    13  C    2.592627   2.765093   3.203361   2.863446   4.071893
    14  C    3.874242   4.106109   4.470162   4.097607   5.398104
    15  C    2.990968   2.768150   3.324235   2.709269   3.970676
    16  C    5.031173   5.094502   5.500497   4.938366   6.372237
    17  H    4.195090   4.598760   4.870612   4.666837   5.845105
    18  C    4.389322   4.094145   4.618651   3.864237   5.218689
    19  H    2.628230   2.194787   2.812847   2.235793   3.228350
    20  C    5.246204   5.096545   5.568017   4.848889   6.302764
    21  H    5.987801   6.103819   6.474790   5.935884   7.380771
    22  H    5.003617   4.563409   5.095668   4.281682   5.529394
    23  H    6.306500   6.105424   6.574444   5.800271   7.271106
                    6          7          8          9         10
     6  C    0.000000
     7  O    1.209871   0.000000
     8  O    1.356978   2.249945   0.000000
     9  H    1.878647   2.277368   0.975684   0.000000
    10  C    2.512974   2.835773   3.705816   4.382003   0.000000
    11  H    2.580727   2.463334   3.908706   4.406494   1.095706
    12  H    2.829891   3.024431   3.976593   4.574570   1.097548
    13  C    3.894031   4.301093   4.962058   5.734911   1.521566
    14  C    5.008168   5.169442   6.188432   6.884054   2.511341
    15  C    4.467093   5.130977   5.272001   6.152121   2.580772
    16  C    6.279090   6.508759   7.395694   8.142928   3.809483
    17  H    5.071942   4.999398   6.345020   6.927607   2.680352
    18  C    5.859834   6.482524   6.650298   7.537380   3.858720
    19  H    4.095672   4.952744   4.660636   5.586933   2.819140
    20  C    6.645748   7.081235   7.600965   8.435092   4.345579
    21  H    7.151700   7.260669   8.325792   9.028581   4.661153
    22  H    6.483198   7.216719   7.112706   8.032646   4.731353
    23  H    7.718232   8.158909   8.647202   9.492958   5.432015
                   11         12         13         14         15
    11  H    0.000000
    12  H    1.750829   0.000000
    13  C    2.144512   2.154458   0.000000
    14  C    2.773739   2.785207   1.404496   0.000000
    15  C    3.273676   3.303424   1.400642   2.401745   0.000000
    16  C    4.093650   4.116833   2.438707   1.392598   2.782448
    17  H    2.679215   2.674651   2.154293   1.088116   3.388810
    18  C    4.451603   4.487475   2.437505   2.778142   1.398549
    19  H    3.567293   3.600022   2.163450   3.396520   1.086705
    20  C    4.786758   4.819583   2.825559   2.418329   2.421520
    21  H    4.821336   4.842131   3.417921   2.149906   3.869393
    22  H    5.356542   5.396672   3.415334   3.865112   2.152934
    23  H    5.849010   5.884215   3.912146   3.404475   3.407989
                   16         17         18         19         20
    16  C    0.000000
    17  H    2.149399   0.000000
    18  C    2.407595   3.866241   0.000000
    19  H    3.868845   4.300162   2.142403   0.000000
    20  C    1.397610   3.401510   1.392856   3.394613   0.000000
    21  H    1.086992   2.468935   3.395610   4.955818   2.158537
    22  H    3.396677   4.953218   1.087026   2.453446   2.154730
    23  H    2.160811   4.299689   2.156707   4.290034   1.086588
                   21         22         23
    21  H    0.000000
    22  H    4.299811   0.000000
    23  H    2.492173   2.488397   0.000000
 Stoichiometry    C9H11NO2
 Framework group  C1[X(C9H11NO2)]
 Deg. of freedom    63
 Full point group                 C1      NOp   1
 Largest Abelian subgroup         C1      NOp   1
 Largest concise Abelian subgroup C1      NOp   1
                         Standard orientation:                         
 ---------------------------------------------------------------------
 Center     Atomic      Atomic             Coordinates (Angstroms)
 Number     Number       Type             X           Y           Z
 ---------------------------------------------------------------------
      1          6           0        1.434695   -0.329482   -0.040639
      2          1           0        1.202763   -0.804304   -1.014650
      3          7           0        1.516031   -1.281382    1.074559
      4          1           0        0.599419   -1.690398    1.240991
      5          1           0        2.155143   -2.038737    0.844927
      6          6           0        2.809770    0.304998   -0.240396
      7          8           0        3.042553    1.479127   -0.416526
      8          8           0        3.785552   -0.637960   -0.248754
      9          1           0        4.624361   -0.158975   -0.386349
     10          6           0        0.382693    0.746181    0.238868
     11          1           0        0.581936    1.594439   -0.425460
     12          1           0        0.550607    1.116095    1.258466
     13          6           0       -1.070940    0.325322    0.080777
     14          6           0       -2.069233    1.281904    0.327702
     15          6           0       -1.476545   -0.949436   -0.334283
     16          6           0       -3.419399    0.975396    0.177926
     17          1           0       -1.776911    2.281393    0.643244
     18          6           0       -2.831076   -1.262919   -0.485652
     19          1           0       -0.738380   -1.717175   -0.550195
     20          6           0       -3.808036   -0.303692   -0.229760
     21          1           0       -4.170067    1.735971    0.376862
     22          1           0       -3.116900   -2.261109   -0.807438
     23          1           0       -4.860604   -0.546490   -0.347332
 ---------------------------------------------------------------------
 Rotational constants (GHZ):           2.5265877           0.4392247           0.3944433
 Standard basis: 6-31G(d) (6D, 7F)
 There are   202 symmetry adapted cartesian basis functions of A   symmetry.
 There are   202 symmetry adapted basis functions of A   symmetry.
   202 basis functions,   380 primitive gaussians,   202 cartesian basis functions
    44 alpha electrons       44 beta electrons
       nuclear repulsion energy       663.3980842193 Hartrees.
 NAtoms=   23 NActive=   23 NUniq=   23 SFac= 1.00D+00 NAtFMM=   60 NAOKFM=F Big=F
 Integral buffers will be    131072 words long.
 Regular integral format.
 Two-electron integral symmetry is turned on.
 One-electron integrals computed using PRISM.
 NBasis=   202 RedAO= T EigKep=  4.59D-04  NBF=   202
 NBsUse=   202 1.00D-06 EigRej= -1.00D+00 NBFU=   202
 ExpMin= 1.61D-01 ExpMax= 5.48D+03 ExpMxC= 8.25D+02 IAcc=3 IRadAn=         5 AccDes= 0.00D+00
 Harris functional with IExCor=  402 and IRadAn=       5 diagonalized for initial guess.
 HarFok:  IExCor=  402 AccDes= 0.00D+00 IRadAn=         5 IDoV= 1 UseB2=F ITyADJ=14
 ICtDFT=  3500011 ScaDFX=  1.000000  1.000000  1.000000  1.000000
 FoFCou: FMM=F IPFlag=           0 FMFlag=      100000 FMFlg1=           0
         NFxFlg=           0 DoJE=T BraDBF=F KetDBF=T FulRan=T
         wScrn=  0.000000 ICntrl=       500 IOpCl=  0 I1Cent=   200000004 NGrid=           0
         NMat0=    1 NMatS0=      1 NMatT0=    0 NMatD0=    1 NMtDS0=    0 NMtDT0=    0
 Petite list used in FoFCou.
 Requested convergence on RMS density matrix=1.00D-08 within 128 cycles.
 Requested convergence on MAX density matrix=1.00D-06.
 Requested convergence on             energy=1.00D-06.
 No special actions if energy rises.
 Integral accuracy reduced to 1.0D-05 until final iterations.
 Initial convergence to 1.0D-05 achieved.  Increase integral accuracy.
 SCF Done:  E(RB3LYP) =  -554.782362529     A.U. after   14 cycles
            NFock= 14  Conv=0.44D-08     -V/T= 2.0094
 DoSCS=F DFT=T ScalE2(SS,OS)=  1.000000  1.000000
 ExpMin= 1.61D-01 ExpMax= 5.48D+03 ExpMxC= 8.25D+02 IAcc=3 IRadAn=         5 AccDes= 0.00D+00
 HarFok:  IExCor=  205 AccDes= 0.00D+00 IRadAn=         5 IDoV=-2 UseB2=F ITyADJ=14
 ICtDFT= 12500011 ScaDFX=  1.000000  1.000000  1.000000  1.000000
 Range of M.O.s used for correlation:    13   202
 NBasis=   202 NAE=    44 NBE=    44 NFC=    12 NFV=     0
 NROrb=    190 NOA=    32 NOB=    32 NVA=   158 NVB=   158
 Keep R1, R2, and R3 ints in memory in canonical form, NReq=656629584.
 Orbital symmetries:
       Occupied  (A) (A) (A) (A) (A) (A) (A) (A) (A) (A) (A) (A)
                 (A) (A) (A) (A) (A) (A) (A) (A) (A) (A) (A) (A)
                 (A) (A) (A) (A) (A) (A) (A) (A) (A) (A) (A) (A)
                 (A) (A) (A) (A) (A) (A) (A) (A)
       Virtual   (A) (A) (A) (A) (A) (A) (A) (A) (A) (A) (A) (A)
                 (A) (A) (A) (A) (A) (A) (A) (A) (A) (A) (A) (A)
                 (A) (A) (A) (A) (A) (A) (A) (A) (A) (A) (A) (A)
                 (A) (A) (A) (A) (A) (A) (A) (A) (A) (A) (A) (A)
                 (A) (A) (A) (A) (A) (A) (A) (A) (A) (A) (A) (A)
                 (A) (A) (A) (A) (A) (A) (A) (A) (A) (A) (A) (A)
                 (A) (A) (A) (A) (A) (A) (A) (A) (A) (A) (A) (A)
                 (A) (A) (A) (A) (A) (A) (A) (A) (A) (A) (A) (A)
                 (A) (A) (A) (A) (A) (A) (A) (A) (A) (A) (A) (A)
                 (A) (A) (A) (A) (A) (A) (A) (A) (A) (A) (A) (A)
                 (A) (A) (A) (A) (A) (A) (A) (A) (A) (A) (A) (A)
                 (A) (A) (A) (A) (A) (A) (A) (A) (A) (A) (A) (A)
                 (A) (A) (A) (A) (A) (A) (A) (A) (A) (A) (A) (A)
                 (A) (A)
    12 initial guesses have been made.
 Convergence on wavefunction:    0.001000000000000
 Iteration     1 Dimension    12 NMult     0 NNew     12
 CISAX will form    12 AO SS matrices at one time.
 New state      2 was old state      5
 Iteration     2 Dimension    18 NMult    12 NNew      6
 Iteration     3 Dimension    24 NMult    18 NNew      6
 Iteration     4 Dimension    30 NMult    24 NNew      6
 Iteration     5 Dimension    36 NMult    30 NNew      6
 Iteration     6 Dimension    38 NMult    36 NNew      2
 Iteration     7 Dimension    40 NMult    38 NNew      2
 Iteration     8 Dimension    42 NMult    40 NNew      2
 ***********************************************************************
 Excited states from <AA,BB:AA,BB> singles matrix:
 ***********************************************************************
 
 Ground to excited state transition densities written to RWF  633
 Ground to excited state transition electric dipole moments (Au):
       state          X           Y           Z        Dip. S.      Osc.
         1         0.1437     -0.0981     -0.0035      0.0303      0.0040
         2         0.0774      0.0544      0.0635      0.0130      0.0017
         3         0.2293     -0.0234      0.0614      0.0569      0.0082
 Ground to excited state transition velocity dipole moments (Au):
       state          X           Y           Z        Dip. S.      Osc.
         1        -0.0293      0.0181     -0.0005      0.0012      0.0040
         2        -0.0108     -0.0141     -0.0149      0.0005      0.0018
         3        -0.0435     -0.0020     -0.0211      0.0023      0.0072
 Ground to excited state transition magnetic dipole moments (Au):
       state          X           Y           Z
         1        -0.0230      0.0282     -0.2708
         2        -0.2675     -0.2848      0.2062
         3         0.0902     -0.0486     -0.1919
 Ground to excited state transition velocity quadrupole moments (Au):
       state          XX          YY          ZZ          XY          XZ          YZ
         1         0.1045     -0.0140      0.0014     -0.1307     -0.0414      0.0170
         2        -0.0765     -0.0596      0.1051     -0.0478      0.0241      0.0445
         3         0.0518      0.0875     -0.0365      0.0076     -0.0684      0.0617
 <0|del|b> * <b|rxdel|0> + <0|del|b> * <b|delr+rdel|0>
 Rotatory Strengths (R) in cgs (10**-40 erg-esu-cm/Gauss)
       state          XX          YY          ZZ    R(velocity)    E-M Angle
         1         2.5917      0.4347      1.6674      1.5646       81.97
         2         3.4950     -2.4453     12.3580      4.4692       68.13
         3         6.3271     -3.9256     -1.6435      0.2527       88.74
 1/2[<0|r|b>*<b|rxdel|0> + (<0|rxdel|b>*<b|r|0>)*]
 Rotatory Strengths (R) in cgs (10**-40 erg-esu-cm/Gauss)
       state          XX          YY          ZZ     R(length)
         1         2.3398      1.9548     -0.6778      1.2056
         2        14.6364     10.9652     -9.2624      5.4464
         3       -14.6164     -0.8034      8.3376     -2.3607
  1/2[<0|del|b>*<b|r|0> + (<0|r|b>*<b|del|0>)*] (Au)
       state          X           Y           Z        Dip. S.   Osc.(frdel)
         1        -0.0042     -0.0018      0.0000      0.0060      0.0040
         2        -0.0008     -0.0008     -0.0009      0.0025      0.0017
         3        -0.0100      0.0000     -0.0013      0.0112      0.0075

 Excitation energies and oscillator strengths:
 
 Excited State   1:      Singlet-A      5.3928 eV  229.91 nm  f=0.0040  <S**2>=0.000
      42 -> 45         0.25714
      42 -> 46         0.21728
      42 -> 47        -0.13918
      43 -> 46         0.36062
      44 -> 45         0.45703
      44 -> 46        -0.12771
 This state for optimization and/or second-order correction.
 Total Energy, E(TD-HF/TD-DFT) =  -554.584180099    
 Copying the excited state density for this state as the 1-particle RhoCI density.
 
 Excited State   2:      Singlet-A      5.4706 eV  226.64 nm  f=0.0017  <S**2>=0.000
      41 -> 47        -0.22103
      42 -> 46        -0.14298
      42 -> 47        -0.13528
      43 -> 45         0.10821
      43 -> 46         0.15134
      43 -> 47         0.36457
      44 -> 46         0.27448
      44 -> 47         0.38015
 
 Excited State   3:      Singlet-A      5.8554 eV  211.74 nm  f=0.0082  <S**2>=0.000
      42 -> 45        -0.23494
      43 -> 45         0.49095
      43 -> 46        -0.19767
      44 -> 45         0.31959
      44 -> 46        -0.23547
 SavETr:  write IOETrn=   770 NScale= 10 NData=  16 NLR=1 NState=    3 LETran=      64.

 **********************************************************************

            Population analysis using the SCF Density.

 **********************************************************************

 Orbital symmetries:
       Occupied  (A) (A) (A) (A) (A) (A) (A) (A) (A) (A) (A) (A)
                 (A) (A) (A) (A) (A) (A) (A) (A) (A) (A) (A) (A)
                 (A) (A) (A) (A) (A) (A) (A) (A) (A) (A) (A) (A)
                 (A) (A) (A) (A) (A) (A) (A) (A)
       Virtual   (A) (A) (A) (A) (A) (A) (A) (A) (A) (A) (A) (A)
                 (A) (A) (A) (A) (A) (A) (A) (A) (A) (A) (A) (A)
                 (A) (A) (A) (A) (A) (A) (A) (A) (A) (A) (A) (A)
                 (A) (A) (A) (A) (A) (A) (A) (A) (A) (A) (A) (A)
                 (A) (A) (A) (A) (A) (A) (A) (A) (A) (A) (A) (A)
                 (A) (A) (A) (A) (A) (A) (A) (A) (A) (A) (A) (A)
                 (A) (A) (A) (A) (A) (A) (A) (A) (A) (A) (A) (A)
                 (A) (A) (A) (A) (A) (A) (A) (A) (A) (A) (A) (A)
                 (A) (A) (A) (A) (A) (A) (A) (A) (A) (A) (A) (A)
                 (A) (A) (A) (A) (A) (A) (A) (A) (A) (A) (A) (A)
                 (A) (A) (A) (A) (A) (A) (A) (A) (A) (A) (A) (A)
                 (A) (A) (A) (A) (A) (A) (A) (A) (A) (A) (A) (A)
                 (A) (A) (A) (A) (A) (A) (A) (A) (A) (A) (A) (A)
                 (A) (A)
 The electronic state is 1-A.
 Alpha  occ. eigenvalues --  -19.20120 -19.14425 -14.32111 -10.32278 -10.23494
 Alpha  occ. eigenvalues --  -10.20033 -10.19120 -10.19045 -10.19024 -10.18974
 Alpha  occ. eigenvalues --  -10.18841 -10.18704  -1.10960  -1.01908  -0.89720
 Alpha  occ. eigenvalues --   -0.85322  -0.77793  -0.74371  -0.72851  -0.67207
 Alpha  occ. eigenvalues --   -0.61089  -0.59653  -0.56682  -0.51905  -0.50563
 Alpha  occ. eigenvalues --   -0.49149  -0.48679  -0.46363  -0.45214  -0.44613
 Alpha  occ. eigenvalues --   -0.42625  -0.41860  -0.41230  -0.39269  -0.38782
 Alpha  occ. eigenvalues --   -0.36945  -0.35099  -0.33886  -0.33579  -0.32309
 Alpha  occ. eigenvalues --   -0.28348  -0.25211  -0.24338  -0.23850
 Alpha virt. eigenvalues --   -0.00372   0.00019   0.00698   0.06683   0.09131
 Alpha virt. eigenvalues --    0.10630   0.12642   0.13181   0.14120   0.15800
 Alpha virt. eigenvalues --    0.15870   0.16612   0.18300   0.19483   0.20261
 Alpha virt. eigenvalues --    0.22191   0.23184   0.25749   0.26109   0.29787
 Alpha virt. eigenvalues --    0.31266   0.31831   0.34054   0.36411   0.39917
 Alpha virt. eigenvalues --    0.47848   0.51570   0.52408   0.53724   0.55597
 Alpha virt. eigenvalues --    0.55834   0.56535   0.58168   0.59170   0.59545
 Alpha virt. eigenvalues --    0.60224   0.61392   0.61717   0.62496   0.63638
 Alpha virt. eigenvalues --    0.64246   0.66368   0.67260   0.69047   0.69622
 Alpha virt. eigenvalues --    0.71924   0.73654   0.76364   0.77298   0.78965
 Alpha virt. eigenvalues --    0.80400   0.83523   0.83768   0.84172   0.85463
 Alpha virt. eigenvalues --    0.86932   0.88030   0.89599   0.90485   0.91479
 Alpha virt. eigenvalues --    0.91900   0.93194   0.94571   0.95796   0.97867
 Alpha virt. eigenvalues --    0.98891   1.01756   1.01942   1.04467   1.06289
 Alpha virt. eigenvalues --    1.07664   1.10147   1.12167   1.13376   1.15935
 Alpha virt. eigenvalues --    1.18559   1.20872   1.23724   1.26212   1.28812
 Alpha virt. eigenvalues --    1.33785   1.40761   1.43310   1.43618   1.45370
 Alpha virt. eigenvalues --    1.48412   1.49371   1.50292   1.51574   1.54981
 Alpha virt. eigenvalues --    1.58336   1.64333   1.67192   1.69775   1.74669
 Alpha virt. eigenvalues --    1.76928   1.78427   1.80102   1.82052   1.82262
 Alpha virt. eigenvalues --    1.84382   1.86679   1.89534   1.91263   1.92383
 Alpha virt. eigenvalues --    1.94573   1.95770   1.98021   2.00350   2.04084
 Alpha virt. eigenvalues --    2.05481   2.06189   2.10975   2.13347   2.14449
 Alpha virt. eigenvalues --    2.14860   2.16049   2.19827   2.21712   2.25942
 Alpha virt. eigenvalues --    2.26546   2.31081   2.34682   2.37044   2.38295
 Alpha virt. eigenvalues --    2.41951   2.44997   2.53165   2.54832   2.55947
 Alpha virt. eigenvalues --    2.58582   2.60239   2.63315   2.65208   2.67888
 Alpha virt. eigenvalues --    2.72265   2.75249   2.75736   2.78617   2.79961
 Alpha virt. eigenvalues --    2.87830   2.91460   2.98703   3.05871   3.13751
 Alpha virt. eigenvalues --    3.40944   3.79924   3.84395   4.08706   4.11422
 Alpha virt. eigenvalues --    4.12404   4.13656   4.27190   4.33258   4.34340
 Alpha virt. eigenvalues --    4.43418   4.59713   4.71741
          Condensed to atoms (all electrons):
               1          2          3          4          5          6
     1  C    5.119716   0.345966   0.287320  -0.034397  -0.024867   0.298630
     2  H    0.345966   0.649363  -0.048500  -0.004624  -0.004167  -0.038964
     3  N    0.287320  -0.048500   6.974686   0.306709   0.302315  -0.040294
     4  H   -0.034397  -0.004624   0.306709   0.438752  -0.029034   0.005066
     5  H   -0.024867  -0.004167   0.302315  -0.029034   0.433810  -0.009590
     6  C    0.298630  -0.038964  -0.040294   0.005066  -0.009590   4.349011
     7  O   -0.081620   0.001307   0.001061  -0.000089   0.000077   0.575336
     8  O   -0.095024   0.000027  -0.001008   0.000099   0.010159   0.283711
     9  H    0.011288  -0.000580  -0.000430   0.000028  -0.000271  -0.007645
    10  C    0.339173  -0.053391  -0.058017  -0.006109   0.006081  -0.028120
    11  H   -0.036133   0.001197   0.004597   0.000049  -0.000240  -0.003969
    12  H   -0.033335   0.007015   0.003931  -0.001296  -0.000053  -0.005034
    13  C   -0.029263  -0.003685  -0.003121   0.003323  -0.000028   0.003987
    14  C    0.002991   0.000106  -0.000057  -0.000152   0.000007  -0.000134
    15  C   -0.001403   0.003539  -0.004816   0.007276  -0.000101   0.000419
    16  C   -0.000138   0.000002   0.000001  -0.000016  -0.000000   0.000001
    17  H    0.000156   0.000005  -0.000003  -0.000001   0.000000  -0.000006
    18  C    0.000014  -0.000200   0.000048  -0.000024   0.000003  -0.000003
    19  H    0.006382  -0.002262   0.003156   0.003761   0.000699   0.000062
    20  C    0.000005  -0.000013   0.000001  -0.000003   0.000000   0.000000
    21  H    0.000002   0.000000  -0.000000  -0.000000   0.000000  -0.000000
    22  H    0.000005   0.000012  -0.000002  -0.000005  -0.000000  -0.000000
    23  H   -0.000000  -0.000000   0.000000  -0.000000  -0.000000  -0.000000
               7          8          9         10         11         12
     1  C   -0.081620  -0.095024   0.011288   0.339173  -0.036133  -0.033335
     2  H    0.001307   0.000027  -0.000580  -0.053391   0.001197   0.007015
     3  N    0.001061  -0.001008  -0.000430  -0.058017   0.004597   0.003931
     4  H   -0.000089   0.000099   0.000028  -0.006109   0.000049  -0.001296
     5  H    0.000077   0.010159  -0.000271   0.006081  -0.000240  -0.000053
     6  C    0.575336   0.283711  -0.007645  -0.028120  -0.003969  -0.005034
     7  O    8.027161  -0.084506   0.011479   0.000355   0.011394   0.001638
     8  O   -0.084506   8.246965   0.217587   0.002401   0.000284  -0.000052
     9  H    0.011479   0.217587   0.356742  -0.000262  -0.000034  -0.000011
    10  C    0.000355   0.002401  -0.000262   5.242234   0.354997   0.347912
    11  H    0.011394   0.000284  -0.000034   0.354997   0.547757  -0.027545
    12  H    0.001638  -0.000052  -0.000011   0.347912  -0.027545   0.561552
    13  C    0.000690  -0.000014   0.000001   0.331502  -0.031422  -0.028288
    14  C   -0.000005   0.000000  -0.000000  -0.055389  -0.005407  -0.004124
    15  C    0.000002  -0.000002   0.000000  -0.070368   0.001210   0.001160
    16  C   -0.000000  -0.000000   0.000000   0.005839   0.000057  -0.000015
    17  H    0.000001   0.000000  -0.000000  -0.008678   0.002032   0.002579
    18  C   -0.000000   0.000000   0.000000   0.007104  -0.000121  -0.000156
    19  H   -0.000000   0.000002   0.000000  -0.012526  -0.000089  -0.000006
    20  C    0.000000  -0.000000   0.000000   0.000313   0.000021   0.000025
    21  H    0.000000   0.000000  -0.000000  -0.000177  -0.000002  -0.000002
    22  H   -0.000000   0.000000  -0.000000  -0.000179   0.000003   0.000003
    23  H    0.000000  -0.000000  -0.000000   0.000008  -0.000000  -0.000000
              13         14         15         16         17         18
     1  C   -0.029263   0.002991  -0.001403  -0.000138   0.000156   0.000014
     2  H   -0.003685   0.000106   0.003539   0.000002   0.000005  -0.000200
     3  N   -0.003121  -0.000057  -0.004816   0.000001  -0.000003   0.000048
     4  H    0.003323  -0.000152   0.007276  -0.000016  -0.000001  -0.000024
     5  H   -0.000028   0.000007  -0.000101  -0.000000   0.000000   0.000003
     6  C    0.003987  -0.000134   0.000419   0.000001  -0.000006  -0.000003
     7  O    0.000690  -0.000005   0.000002  -0.000000   0.000001  -0.000000
     8  O   -0.000014   0.000000  -0.000002  -0.000000   0.000000   0.000000
     9  H    0.000001  -0.000000   0.000000   0.000000  -0.000000   0.000000
    10  C    0.331502  -0.055389  -0.070368   0.005839  -0.008678   0.007104
    11  H   -0.031422  -0.005407   0.001210   0.000057   0.002032  -0.000121
    12  H   -0.028288  -0.004124   0.001160  -0.000015   0.002579  -0.000156
    13  C    4.675199   0.531191   0.549332  -0.014212  -0.049821  -0.018239
    14  C    0.531191   4.965638  -0.035947   0.527538   0.358774  -0.046022
    15  C    0.549332  -0.035947   4.991399  -0.047888   0.006282   0.514144
    16  C   -0.014212   0.527538  -0.047888   4.865584  -0.045882  -0.026281
    17  H   -0.049821   0.358774   0.006282  -0.045882   0.607549   0.000320
    18  C   -0.018239  -0.046022   0.514144  -0.026281   0.000320   4.875514
    19  H   -0.050211   0.006138   0.347001   0.000363  -0.000176  -0.044386
    20  C   -0.035722  -0.034445  -0.034502   0.544655   0.004998   0.556013
    21  H    0.003733  -0.039556   0.000834   0.356955  -0.005811   0.004622
    22  H    0.003691   0.000887  -0.039063   0.004549   0.000018   0.355598
    23  H    0.000742   0.004558   0.004747  -0.042966  -0.000180  -0.043000
              19         20         21         22         23
     1  C    0.006382   0.000005   0.000002   0.000005  -0.000000
     2  H   -0.002262  -0.000013   0.000000   0.000012  -0.000000
     3  N    0.003156   0.000001  -0.000000  -0.000002   0.000000
     4  H    0.003761  -0.000003  -0.000000  -0.000005  -0.000000
     5  H    0.000699   0.000000   0.000000  -0.000000  -0.000000
     6  C    0.000062   0.000000  -0.000000  -0.000000  -0.000000
     7  O   -0.000000   0.000000   0.000000  -0.000000   0.000000
     8  O    0.000002  -0.000000   0.000000   0.000000  -0.000000
     9  H    0.000000   0.000000  -0.000000  -0.000000  -0.000000
    10  C   -0.012526   0.000313  -0.000177  -0.000179   0.000008
    11  H   -0.000089   0.000021  -0.000002   0.000003  -0.000000
    12  H   -0.000006   0.000025  -0.000002   0.000003  -0.000000
    13  C   -0.050211  -0.035722   0.003733   0.003691   0.000742
    14  C    0.006138  -0.034445  -0.039556   0.000887   0.004558
    15  C    0.347001  -0.034502   0.000834  -0.039063   0.004747
    16  C    0.000363   0.544655   0.356955   0.004549  -0.042966
    17  H   -0.000176   0.004998  -0.005811   0.000018  -0.000180
    18  C   -0.044386   0.556013   0.004622   0.355598  -0.043000
    19  H    0.624073   0.004920   0.000019  -0.005884  -0.000187
    20  C    0.004920   4.850678  -0.043545  -0.042749   0.358925
    21  H    0.000019  -0.043545   0.597685  -0.000193  -0.005456
    22  H   -0.005884  -0.042749  -0.000193   0.600129  -0.005566
    23  H   -0.000187   0.358925  -0.005456  -0.005566   0.599323
 Mulliken charges:
               1
     1  C   -0.075467
     2  H    0.147849
     3  N   -0.727576
     4  H    0.310688
     5  H    0.315202
     6  C    0.617534
     7  O   -0.464277
     8  O   -0.580628
     9  H    0.412107
    10  C   -0.344702
    11  H    0.181365
    12  H    0.174102
    13  C    0.160636
    14  C   -0.176590
    15  C   -0.193257
    16  C   -0.128148
    17  H    0.127844
    18  C   -0.134949
    19  H    0.119151
    20  C   -0.129576
    21  H    0.130894
    22  H    0.128748
    23  H    0.129052
 Sum of Mulliken charges =  -0.00000
 Mulliken charges with hydrogens summed into heavy atoms:
               1
     1  C    0.072382
     3  N   -0.101686
     6  C    0.617534
     7  O   -0.464277
     8  O   -0.168521
    10  C    0.010765
    13  C    0.160636
    14  C   -0.048746
    15  C   -0.074106
    16  C    0.002746
    18  C   -0.006201
    20  C   -0.000524
 Electronic spatial extent (au):  <R**2>=           2709.1250
 Charge=             -0.0000 electrons
 Dipole moment (field-independent basis, Debye):
    X=             -0.3353    Y=             -1.8869    Z=             -0.7052  Tot=              2.0421
 Quadrupole moment (field-independent basis, Debye-Ang):
   XX=            -60.4122   YY=            -67.7692   ZZ=            -73.9100
   XY=             -4.7991   XZ=             -2.2340   YZ=              2.5901
 Traceless Quadrupole moment (field-independent basis, Debye-Ang):
   XX=              6.9516   YY=             -0.4054   ZZ=             -6.5462
   XY=             -4.7991   XZ=             -2.2340   YZ=              2.5901
 Octapole moment (field-independent basis, Debye-Ang**2):
  XXX=             63.9860  YYY=            -14.1372  ZZZ=             -5.2023  XYY=             -6.8400
  XXY=            -10.8418  XXZ=             -9.1192  XZZ=             14.4901  YZZ=              1.1435
  YYZ=              4.7936  XYZ=             -1.2320
 Hexadecapole moment (field-independent basis, Debye-Ang**3):
 XXXX=          -2281.6728 YYYY=           -477.6637 ZZZZ=           -176.2935 XXXY=            -33.1249
 XXXZ=            -32.6445 YYYX=            -32.5604 YYYZ=             -1.7126 ZZZX=            -21.4591
 ZZZY=             -1.4523 XXYY=           -571.5718 XXZZ=           -523.7275 YYZZ=           -110.0550
 XXYZ=             23.8236 YYXZ=              9.0645 ZZXY=              5.9055
 N-N= 6.633980842193D+02 E-N=-2.618635057770D+03  KE= 5.496174077761D+02
 Unable to Open any file for archive entry.
 1\1\GINC-CCC147\SP\RB3LYP TD-FC\6-31G(d)\C9H11N1O2\ROOT\21-Feb-2025\0\
 \# td=(nstat=3) b3lyp/6-31g(d)\\phe | No.10\\0,1\C,0,-1.434695,-0.3294
 82,0.040639\H,0,-1.202763,-0.804304,1.01465\N,0,-1.516031,-1.281382,-1
 .074559\H,0,-0.599419,-1.690398,-1.240991\H,0,-2.155143,-2.038737,-0.8
 44927\C,0,-2.80977,0.304998,0.240396\O,0,-3.042553,1.479127,0.416526\O
 ,0,-3.785552,-0.63796,0.248754\H,0,-4.624361,-0.158975,0.386349\C,0,-0
 .382693,0.746181,-0.238868\H,0,-0.581936,1.594439,0.42546\H,0,-0.55060
 7,1.116095,-1.258466\C,0,1.07094,0.325322,-0.080777\C,0,2.069233,1.281
 904,-0.327702\C,0,1.476545,-0.949436,0.334283\C,0,3.419399,0.975396,-0
 .177926\H,0,1.776911,2.281393,-0.643244\C,0,2.831076,-1.262919,0.48565
 2\H,0,0.73838,-1.717175,0.550195\C,0,3.808036,-0.303692,0.22976\H,0,4.
 170067,1.735971,-0.376862\H,0,3.1169,-2.261109,0.807438\H,0,4.860604,-
 0.54649,0.347332\\Version=ES64L-G16RevC.02\State=1-A\HF=-554.7823625\R
 MSD=4.387e-09\PG=C01 [X(C9H11N1O2)]\\@
 The archive entry for this job was punched.


 IF AT FIRST YOU DON'T SUCCEED, TRY LOOKING IN 
 THE WASTEBASKET FOR THE DIRECTIONS.
 Job cpu time:       0 days  0 hours 10 minutes  9.1 seconds.
 Elapsed time:       0 days  0 hours  1 minutes 21.4 seconds.
 File lengths (MBytes):  RWF=    272 Int=      0 D2E=      0 Chk=      8 Scr=      1
 Normal termination of Gaussian 16 at Fri Feb 21 15:15:36 2025.
