 Entering Gaussian System, Link 0=/apl/gaussian/16c02/g16/._.g16
 Initial command:
 /apl/gaussian/16c02/g16/l1.exe "/lwork/users/ux8/8287065.ccpbs1/gaussian/Gau-738093.inp" -scrdir="/lwork/users/ux8/8287065.ccpbs1/gaussian/"
 Default CPUs for threads: 114,115,116,117,118,119,120,121
 Default is to use a total of   8 processors:
                                8 via shared-memory
                                1 via Linda
 Entering Link 1 = /apl/gaussian/16c02/g16/l1.exe PID=    738094.
  
 Copyright (c) 1988-2021, Gaussian, Inc.  All Rights Reserved.
  
 This is part of the Gaussian(R) 16 program.  It is based on
 the Gaussian(R) 09 system (copyright 2009, Gaussian, Inc.),
 the Gaussian(R) 03 system (copyright 2003, Gaussian, Inc.),
 the Gaussian(R) 98 system (copyright 1998, Gaussian, Inc.),
 the Gaussian(R) 94 system (copyright 1995, Gaussian, Inc.),
 the Gaussian 92(TM) system (copyright 1992, Gaussian, Inc.),
 the Gaussian 90(TM) system (copyright 1990, Gaussian, Inc.),
 the Gaussian 88(TM) system (copyright 1988, Gaussian, Inc.),
 the Gaussian 86(TM) system (copyright 1986, Carnegie Mellon
 University), and the Gaussian 82(TM) system (copyright 1983,
 Carnegie Mellon University). Gaussian is a federally registered
 trademark of Gaussian, Inc.
  
 This software contains proprietary and confidential information,
 including trade secrets, belonging to Gaussian, Inc.
  
 This software is provided under written license and may be
 used, copied, transmitted, or stored only in accord with that
 written license.
  
 The following legend is applicable only to US Government
 contracts under FAR:
  
                    RESTRICTED RIGHTS LEGEND
  
 Use, reproduction and disclosure by the US Government is
 subject to restrictions as set forth in subparagraphs (a)
 and (c) of the Commercial Computer Software - Restricted
 Rights clause in FAR 52.227-19.
  
 Gaussian, Inc.
 340 Quinnipiac St., Bldg. 40, Wallingford CT 06492
  
  
 ---------------------------------------------------------------
 Warning -- This program may not be used in any manner that
 competes with the business of Gaussian, Inc. or will provide
 assistance to any competitor of Gaussian, Inc.  The licensee
 of this program is prohibited from giving any competitor of
 Gaussian, Inc. access to this program.  By using this program,
 the user acknowledges that Gaussian, Inc. is engaged in the
 business of creating and licensing software in the field of
 computational chemistry and represents and warrants to the
 licensee that it is not a competitor of Gaussian, Inc. and that
 it will not use this program in any manner prohibited above.
 ---------------------------------------------------------------
  

 Cite this work as:
 Gaussian 16, Revision C.02,
 M. J. Frisch, G. W. Trucks, H. B. Schlegel, G. E. Scuseria, 
 M. A. Robb, J. R. Cheeseman, G. Scalmani, V. Barone, 
 G. A. Petersson, H. Nakatsuji, X. Li, M. Caricato, A. V. Marenich, 
 J. Bloino, B. G. Janesko, R. Gomperts, B. Mennucci, H. P. Hratchian, 
 J. V. Ortiz, A. F. Izmaylov, J. L. Sonnenberg, D. Williams-Young, 
 F. Ding, F. Lipparini, F. Egidi, J. Goings, B. Peng, A. Petrone, 
 T. Henderson, D. Ranasinghe, V. G. Zakrzewski, J. Gao, N. Rega, 
 G. Zheng, W. Liang, M. Hada, M. Ehara, K. Toyota, R. Fukuda, 
 J. Hasegawa, M. Ishida, T. Nakajima, Y. Honda, O. Kitao, H. Nakai, 
 T. Vreven, K. Throssell, J. A. Montgomery, Jr., J. E. Peralta, 
 F. Ogliaro, M. J. Bearpark, J. J. Heyd, E. N. Brothers, K. N. Kudin, 
 V. N. Staroverov, T. A. Keith, R. Kobayashi, J. Normand, 
 K. Raghavachari, A. P. Rendell, J. C. Burant, S. S. Iyengar, 
 J. Tomasi, M. Cossi, J. M. Millam, M. Klene, C. Adamo, R. Cammi, 
 J. W. Ochterski, R. L. Martin, K. Morokuma, O. Farkas, 
 J. B. Foresman, and D. J. Fox, Gaussian, Inc., Wallingford CT, 2019.
 
 ******************************************
 Gaussian 16:  ES64L-G16RevC.02  7-Dec-2021
                21-Feb-2025 
 ******************************************
 %chk=phe.006.tddft.chk
 %mem=9600MB
 SetSPE:  set environment variable "OMP_PROC_BIND" = "true"
 SetSPE:  set environment variable "OMP_PLACES" = "{114},{115},{116},{117},{118},{119},{120},{121}"
 -----------------------------
 # td=(nstat=3) b3lyp/6-31g(d)
 -----------------------------
 1/38=1,172=1/1;
 2/12=2,17=6,18=5,40=1/2;
 3/5=1,6=6,7=1,11=9,25=1,30=1,74=-5/1,2,3,8;
 4//1;
 5/5=2,38=5/2;
 8/6=1,10=2,108=3/1;
 9/41=3,42=1,70=2/14;
 6/7=2,8=2,9=2,10=2/1;
 99/5=1,9=1/99;
 ----------
 phe | No.6
 ----------
 Symbolic Z-matrix:
 Charge =  0 Multiplicity = 1
 C                    -1.41941  -0.34052  -0.00285 
 H                    -1.27494  -1.12486   0.76616 
 N                    -1.30791  -0.84554  -1.37525 
 H                    -0.36423  -1.20157  -1.51731 
 H                    -1.94993  -1.62296  -1.51181 
 C                    -2.83982   0.16657   0.22817 
 O                    -3.15368   1.21347   0.74682 
 O                    -3.75805  -0.74266  -0.18843 
 H                    -4.6319   -0.34889  -0.00557 
 C                    -0.40485   0.78508   0.23697 
 H                    -0.60542   1.2161    1.22561 
 H                    -0.60111   1.57821  -0.49155 
 C                     1.0502    0.3574    0.14648 
 C                     1.98389   1.19886  -0.47461 
 C                     1.5194   -0.83275   0.72329 
 C                     3.33755   0.86469  -0.52593 
 H                     1.64141   2.12681  -0.92675 
 C                     2.87188  -1.17433   0.66997 
 H                     0.82748  -1.50118   1.23025 
 C                     3.78746  -0.32656   0.04509 
 H                     4.03961   1.53464  -1.01558 
 H                     3.20985  -2.10314   1.12249 
 H                     4.84049  -0.59166   0.00419 
 
                          Input orientation:                          
 ---------------------------------------------------------------------
 Center     Atomic      Atomic             Coordinates (Angstroms)
 Number     Number       Type             X           Y           Z
 ---------------------------------------------------------------------
      1          6           0       -1.419407   -0.340518   -0.002847
      2          1           0       -1.274936   -1.124861    0.766156
      3          7           0       -1.307912   -0.845536   -1.375248
      4          1           0       -0.364234   -1.201572   -1.517306
      5          1           0       -1.949927   -1.622955   -1.511813
      6          6           0       -2.839817    0.166568    0.228168
      7          8           0       -3.153680    1.213473    0.746823
      8          8           0       -3.758052   -0.742659   -0.188429
      9          1           0       -4.631900   -0.348886   -0.005570
     10          6           0       -0.404845    0.785081    0.236972
     11          1           0       -0.605418    1.216096    1.225614
     12          1           0       -0.601106    1.578212   -0.491550
     13          6           0        1.050204    0.357401    0.146480
     14          6           0        1.983894    1.198864   -0.474608
     15          6           0        1.519400   -0.832751    0.723285
     16          6           0        3.337554    0.864694   -0.525934
     17          1           0        1.641412    2.126807   -0.926754
     18          6           0        2.871878   -1.174328    0.669969
     19          1           0        0.827481   -1.501184    1.230248
     20          6           0        3.787458   -0.326556    0.045092
     21          1           0        4.039614    1.534637   -1.015578
     22          1           0        3.209852   -2.103138    1.122492
     23          1           0        4.840490   -0.591655    0.004186
 ---------------------------------------------------------------------
                    Distance matrix (angstroms):
                    1          2          3          4          5
     1  C    0.000000
     2  H    1.107895   0.000000
     3  N    1.466615   2.159797   0.000000
     4  H    2.036760   2.459565   1.018563   0.000000
     5  H    2.050140   2.427520   1.017454   1.640736   0.000000
     6  C    1.525801   2.099065   2.437628   3.323702   2.649874
     7  O    2.446343   2.999643   3.485622   4.328941   3.820443
     8  O    2.380214   2.687597   2.724391   3.673488   2.407402
     9  H    3.212505   3.530851   3.629266   4.607102   3.329414
    10  C    1.534217   2.164480   2.464487   2.650647   3.353232
    11  H    2.143535   2.477788   3.392390   3.664273   4.166704
    12  H    2.142422   3.056546   2.674893   2.972454   3.620459
    13  C    2.570675   2.826194   3.053428   2.683135   3.958855
    14  C    3.764932   4.190366   3.978280   3.516108   4.951101
    15  C    3.066944   2.809890   3.521036   2.950314   4.201942
    16  C    4.935062   5.186800   5.022606   4.353792   5.926028
    17  H    4.038553   4.684482   4.211233   3.930582   5.225010
    18  C    4.423013   4.148224   4.664940   3.906064   5.311426
    19  H    2.813570   2.185671   3.431965   3.009818   3.904833
    20  C    5.207104   5.175428   5.315026   4.521425   6.084586
    21  H    5.860268   6.204188   5.864352   5.208882   6.789053
    22  H    5.079691   4.604055   5.313234   4.533811   5.813214
    23  H    6.264937   6.185737   6.306357   5.456747   7.033605
                    6          7          8          9         10
     6  C    0.000000
     7  O    1.209762   0.000000
     8  O    1.357720   2.250870   0.000000
     9  H    1.879332   2.278639   0.975759   0.000000
    10  C    2.512315   2.828350   3.709306   4.383230   0.000000
    11  H    2.662508   2.592853   3.971818   4.491942   1.097003
    12  H    2.742729   2.860461   3.929966   4.494128   1.094678
    13  C    3.895556   4.331964   4.943847   5.727850   1.519298
    14  C    4.982742   5.280793   6.068060   6.810599   2.526586
    15  C    4.499617   5.101496   5.356383   6.213199   2.560586
    16  C    6.262265   6.624023   7.283208   8.078103   3.820198
    17  H    5.025713   5.160227   6.158991   6.806767   2.709549
    18  C    5.883592   6.481886   6.699191   7.579208   3.842354
    19  H    4.151462   4.842799   4.859539   5.714882   2.780689
    20  C    6.648117   7.144474   7.560582   8.419540   4.341424
    21  H    7.123559   7.413008   8.165406   8.931009   4.678026
    22  H    6.523027   7.185790   7.219495   8.114370   4.710837
    23  H    7.720893   8.229019   8.602025   9.475505   5.427995
                   11         12         13         14         15
    11  H    0.000000
    12  H    1.754936   0.000000
    13  C    2.154756   2.150415   0.000000
    14  C    3.097675   2.612741   1.401994   0.000000
    15  C    2.994154   3.432945   1.403321   2.403781   0.000000
    16  C    4.328791   4.002916   2.437510   1.395242   2.783442
    17  H    3.241964   2.349308   2.152244   1.087570   3.390649
    18  C    4.256108   4.581181   2.436951   2.780398   1.395964
    19  H    3.071943   3.806327   2.162983   3.396187   1.087459
    20  C    4.803204   4.814106   2.823232   2.418644   2.420799
    21  H    5.167275   4.670416   3.416553   2.152063   3.870355
    22  H    5.058086   5.539032   3.416274   3.867418   2.151947
    23  H    5.866665   5.879204   3.909888   3.405193   3.406592
                   16         17         18         19         20
    16  C    0.000000
    17  H    2.151856   0.000000
    18  C    2.409284   3.867953   0.000000
    19  H    3.870661   4.298542   2.144833   0.000000
    20  C    1.395550   3.401322   1.395520   3.397913   0.000000
    21  H    1.086951   2.471827   3.397524   4.957594   2.156999
    22  H    3.397299   4.954982   1.087056   2.459604   2.156540
    23  H    2.158888   4.300091   2.158288   4.293566   1.086659
                   21         22         23
    21  H    0.000000
    22  H    4.300379   0.000000
    23  H    2.490470   2.488809   0.000000
 Stoichiometry    C9H11NO2
 Framework group  C1[X(C9H11NO2)]
 Deg. of freedom    63
 Full point group                 C1      NOp   1
 Largest Abelian subgroup         C1      NOp   1
 Largest concise Abelian subgroup C1      NOp   1
                         Standard orientation:                         
 ---------------------------------------------------------------------
 Center     Atomic      Atomic             Coordinates (Angstroms)
 Number     Number       Type             X           Y           Z
 ---------------------------------------------------------------------
      1          6           0        1.419407   -0.340518    0.002847
      2          1           0        1.274936   -1.124861   -0.766156
      3          7           0        1.307912   -0.845536    1.375248
      4          1           0        0.364234   -1.201572    1.517306
      5          1           0        1.949927   -1.622955    1.511813
      6          6           0        2.839817    0.166568   -0.228168
      7          8           0        3.153680    1.213473   -0.746823
      8          8           0        3.758052   -0.742659    0.188429
      9          1           0        4.631900   -0.348886    0.005570
     10          6           0        0.404845    0.785081   -0.236972
     11          1           0        0.605418    1.216096   -1.225614
     12          1           0        0.601106    1.578212    0.491550
     13          6           0       -1.050204    0.357401   -0.146480
     14          6           0       -1.983894    1.198864    0.474608
     15          6           0       -1.519400   -0.832751   -0.723285
     16          6           0       -3.337554    0.864694    0.525934
     17          1           0       -1.641412    2.126807    0.926754
     18          6           0       -2.871878   -1.174328   -0.669969
     19          1           0       -0.827481   -1.501184   -1.230248
     20          6           0       -3.787458   -0.326556   -0.045092
     21          1           0       -4.039614    1.534637    1.015578
     22          1           0       -3.209852   -2.103138   -1.122492
     23          1           0       -4.840490   -0.591655   -0.004186
 ---------------------------------------------------------------------
 Rotational constants (GHZ):           2.5811383           0.4307817           0.4090273
 Standard basis: 6-31G(d) (6D, 7F)
 There are   202 symmetry adapted cartesian basis functions of A   symmetry.
 There are   202 symmetry adapted basis functions of A   symmetry.
   202 basis functions,   380 primitive gaussians,   202 cartesian basis functions
    44 alpha electrons       44 beta electrons
       nuclear repulsion energy       664.4058334647 Hartrees.
 NAtoms=   23 NActive=   23 NUniq=   23 SFac= 1.00D+00 NAtFMM=   60 NAOKFM=F Big=F
 Integral buffers will be    131072 words long.
 Regular integral format.
 Two-electron integral symmetry is turned on.
 One-electron integrals computed using PRISM.
 NBasis=   202 RedAO= T EigKep=  4.62D-04  NBF=   202
 NBsUse=   202 1.00D-06 EigRej= -1.00D+00 NBFU=   202
 ExpMin= 1.61D-01 ExpMax= 5.48D+03 ExpMxC= 8.25D+02 IAcc=3 IRadAn=         5 AccDes= 0.00D+00
 Harris functional with IExCor=  402 and IRadAn=       5 diagonalized for initial guess.
 HarFok:  IExCor=  402 AccDes= 0.00D+00 IRadAn=         5 IDoV= 1 UseB2=F ITyADJ=14
 ICtDFT=  3500011 ScaDFX=  1.000000  1.000000  1.000000  1.000000
 FoFCou: FMM=F IPFlag=           0 FMFlag=      100000 FMFlg1=           0
         NFxFlg=           0 DoJE=T BraDBF=F KetDBF=T FulRan=T
         wScrn=  0.000000 ICntrl=       500 IOpCl=  0 I1Cent=   200000004 NGrid=           0
         NMat0=    1 NMatS0=      1 NMatT0=    0 NMatD0=    1 NMtDS0=    0 NMtDT0=    0
 Petite list used in FoFCou.
 Requested convergence on RMS density matrix=1.00D-08 within 128 cycles.
 Requested convergence on MAX density matrix=1.00D-06.
 Requested convergence on             energy=1.00D-06.
 No special actions if energy rises.
 Integral accuracy reduced to 1.0D-05 until final iterations.
 Initial convergence to 1.0D-05 achieved.  Increase integral accuracy.
 SCF Done:  E(RB3LYP) =  -554.784400465     A.U. after   14 cycles
            NFock= 14  Conv=0.54D-08     -V/T= 2.0094
 DoSCS=F DFT=T ScalE2(SS,OS)=  1.000000  1.000000
 ExpMin= 1.61D-01 ExpMax= 5.48D+03 ExpMxC= 8.25D+02 IAcc=3 IRadAn=         5 AccDes= 0.00D+00
 HarFok:  IExCor=  205 AccDes= 0.00D+00 IRadAn=         5 IDoV=-2 UseB2=F ITyADJ=14
 ICtDFT= 12500011 ScaDFX=  1.000000  1.000000  1.000000  1.000000
 Range of M.O.s used for correlation:    13   202
 NBasis=   202 NAE=    44 NBE=    44 NFC=    12 NFV=     0
 NROrb=    190 NOA=    32 NOB=    32 NVA=   158 NVB=   158
 Keep R1, R2, and R3 ints in memory in canonical form, NReq=656629584.
 Orbital symmetries:
       Occupied  (A) (A) (A) (A) (A) (A) (A) (A) (A) (A) (A) (A)
                 (A) (A) (A) (A) (A) (A) (A) (A) (A) (A) (A) (A)
                 (A) (A) (A) (A) (A) (A) (A) (A) (A) (A) (A) (A)
                 (A) (A) (A) (A) (A) (A) (A) (A)
       Virtual   (A) (A) (A) (A) (A) (A) (A) (A) (A) (A) (A) (A)
                 (A) (A) (A) (A) (A) (A) (A) (A) (A) (A) (A) (A)
                 (A) (A) (A) (A) (A) (A) (A) (A) (A) (A) (A) (A)
                 (A) (A) (A) (A) (A) (A) (A) (A) (A) (A) (A) (A)
                 (A) (A) (A) (A) (A) (A) (A) (A) (A) (A) (A) (A)
                 (A) (A) (A) (A) (A) (A) (A) (A) (A) (A) (A) (A)
                 (A) (A) (A) (A) (A) (A) (A) (A) (A) (A) (A) (A)
                 (A) (A) (A) (A) (A) (A) (A) (A) (A) (A) (A) (A)
                 (A) (A) (A) (A) (A) (A) (A) (A) (A) (A) (A) (A)
                 (A) (A) (A) (A) (A) (A) (A) (A) (A) (A) (A) (A)
                 (A) (A) (A) (A) (A) (A) (A) (A) (A) (A) (A) (A)
                 (A) (A) (A) (A) (A) (A) (A) (A) (A) (A) (A) (A)
                 (A) (A) (A) (A) (A) (A) (A) (A) (A) (A) (A) (A)
                 (A) (A)
    12 initial guesses have been made.
 Convergence on wavefunction:    0.001000000000000
 Iteration     1 Dimension    12 NMult     0 NNew     12
 CISAX will form    12 AO SS matrices at one time.
 New state      2 was old state      5
 New state      3 was old state      2
 Iteration     2 Dimension    18 NMult    12 NNew      6
 Iteration     3 Dimension    24 NMult    18 NNew      6
 Iteration     4 Dimension    30 NMult    24 NNew      6
 Iteration     5 Dimension    36 NMult    30 NNew      6
 Iteration     6 Dimension    40 NMult    36 NNew      4
 ***********************************************************************
 Excited states from <AA,BB:AA,BB> singles matrix:
 ***********************************************************************
 
 Ground to excited state transition densities written to RWF  633
 Ground to excited state transition electric dipole moments (Au):
       state          X           Y           Z        Dip. S.      Osc.
         1         0.0301      0.1069      0.0351      0.0136      0.0018
         2         0.0904      0.0169      0.0426      0.0103      0.0014
         3         0.1110      0.0716      0.0010      0.0175      0.0025
 Ground to excited state transition velocity dipole moments (Au):
       state          X           Y           Z        Dip. S.      Osc.
         1        -0.0059     -0.0214     -0.0075      0.0006      0.0018
         2        -0.0138     -0.0057     -0.0088      0.0003      0.0010
         3        -0.0264     -0.0211     -0.0035      0.0012      0.0036
 Ground to excited state transition magnetic dipole moments (Au):
       state          X           Y           Z
         1        -0.0603     -0.0966      0.2820
         2        -0.2411     -0.1019      0.0413
         3         0.1737      0.1958      0.0508
 Ground to excited state transition velocity quadrupole moments (Au):
       state          XX          YY          ZZ          XY          XZ          YZ
         1        -0.0137     -0.0046      0.0350      0.0652      0.0759      0.0357
         2        -0.0835     -0.0115      0.0694     -0.1039      0.0088      0.0692
         3         0.1852      0.0187     -0.0213      0.0753      0.0497     -0.0120
 <0|del|b> * <b|rxdel|0> + <0|del|b> * <b|delr+rdel|0>
 Rotatory Strengths (R) in cgs (10**-40 erg-esu-cm/Gauss)
       state          XX          YY          ZZ    R(velocity)    E-M Angle
         1         1.9777     -2.6185      1.8028      0.3873       87.38
         2         2.0855      1.9537      8.5465      4.1952       39.44
         3        -5.8881     -6.9925    -16.8651     -9.9152      169.07
 1/2[<0|r|b>*<b|rxdel|0> + (<0|rxdel|b>*<b|r|0>)*]
 Rotatory Strengths (R) in cgs (10**-40 erg-esu-cm/Gauss)
       state          XX          YY          ZZ     R(length)
         1         1.2832      7.3018     -7.0029      0.5274
         2        15.4226      1.2162     -1.2436      5.1318
         3       -13.6393     -9.9163     -0.0365     -7.8640
  1/2[<0|del|b>*<b|r|0> + (<0|r|b>*<b|del|0>)*] (Au)
       state          X           Y           Z        Dip. S.   Osc.(frdel)
         1        -0.0002     -0.0023     -0.0003      0.0027      0.0018
         2        -0.0013     -0.0001     -0.0004      0.0017      0.0011
         3        -0.0029     -0.0015     -0.0000      0.0044      0.0030

 Excitation energies and oscillator strengths:
 
 Excited State   1:      Singlet-A      5.4022 eV  229.51 nm  f=0.0018  <S**2>=0.000
      42 -> 45         0.23691
      42 -> 46         0.34267
      43 -> 45         0.26257
      43 -> 46        -0.12177
      43 -> 47        -0.16896
      44 -> 45         0.35988
      44 -> 46        -0.26107
 This state for optimization and/or second-order correction.
 Total Energy, E(TD-HF/TD-DFT) =  -554.585874953    
 Copying the excited state density for this state as the 1-particle RhoCI density.
 
 Excited State   2:      Singlet-A      5.4249 eV  228.55 nm  f=0.0014  <S**2>=0.000
      41 -> 47        -0.20285
      42 -> 46        -0.12005
      42 -> 47         0.10547
      43 -> 45        -0.34699
      43 -> 47        -0.24404
      44 -> 45         0.23696
      44 -> 46         0.13345
      44 -> 47         0.41090
 
 Excited State   3:      Singlet-A      5.7555 eV  215.42 nm  f=0.0025  <S**2>=0.000
      41 -> 45         0.10128
      41 -> 47         0.15276
      43 -> 45        -0.19367
      43 -> 47         0.22929
      44 -> 45         0.46274
      44 -> 46         0.28879
      44 -> 47        -0.25086
 SavETr:  write IOETrn=   770 NScale= 10 NData=  16 NLR=1 NState=    3 LETran=      64.

 **********************************************************************

            Population analysis using the SCF Density.

 **********************************************************************

 Orbital symmetries:
       Occupied  (A) (A) (A) (A) (A) (A) (A) (A) (A) (A) (A) (A)
                 (A) (A) (A) (A) (A) (A) (A) (A) (A) (A) (A) (A)
                 (A) (A) (A) (A) (A) (A) (A) (A) (A) (A) (A) (A)
                 (A) (A) (A) (A) (A) (A) (A) (A)
       Virtual   (A) (A) (A) (A) (A) (A) (A) (A) (A) (A) (A) (A)
                 (A) (A) (A) (A) (A) (A) (A) (A) (A) (A) (A) (A)
                 (A) (A) (A) (A) (A) (A) (A) (A) (A) (A) (A) (A)
                 (A) (A) (A) (A) (A) (A) (A) (A) (A) (A) (A) (A)
                 (A) (A) (A) (A) (A) (A) (A) (A) (A) (A) (A) (A)
                 (A) (A) (A) (A) (A) (A) (A) (A) (A) (A) (A) (A)
                 (A) (A) (A) (A) (A) (A) (A) (A) (A) (A) (A) (A)
                 (A) (A) (A) (A) (A) (A) (A) (A) (A) (A) (A) (A)
                 (A) (A) (A) (A) (A) (A) (A) (A) (A) (A) (A) (A)
                 (A) (A) (A) (A) (A) (A) (A) (A) (A) (A) (A) (A)
                 (A) (A) (A) (A) (A) (A) (A) (A) (A) (A) (A) (A)
                 (A) (A) (A) (A) (A) (A) (A) (A) (A) (A) (A) (A)
                 (A) (A) (A) (A) (A) (A) (A) (A) (A) (A) (A) (A)
                 (A) (A)
 The electronic state is 1-A.
 Alpha  occ. eigenvalues --  -19.20091 -19.14386 -14.31825 -10.32233 -10.23416
 Alpha  occ. eigenvalues --  -10.19898 -10.19173 -10.19045 -10.19031 -10.18938
 Alpha  occ. eigenvalues --  -10.18911 -10.18781  -1.10904  -1.01867  -0.89564
 Alpha  occ. eigenvalues --   -0.85334  -0.77718  -0.74387  -0.72766  -0.67155
 Alpha  occ. eigenvalues --   -0.60908  -0.59709  -0.56628  -0.51702  -0.50437
 Alpha  occ. eigenvalues --   -0.49380  -0.48571  -0.45967  -0.45218  -0.45072
 Alpha  occ. eigenvalues --   -0.42215  -0.41572  -0.41280  -0.39119  -0.38688
 Alpha  occ. eigenvalues --   -0.36929  -0.35183  -0.33885  -0.33649  -0.32253
 Alpha  occ. eigenvalues --   -0.28269  -0.25091  -0.24457  -0.23853
 Alpha virt. eigenvalues --   -0.00445  -0.00092   0.00669   0.06859   0.09098
 Alpha virt. eigenvalues --    0.10414   0.12054   0.13085   0.14499   0.15909
 Alpha virt. eigenvalues --    0.16357   0.16471   0.18728   0.19431   0.20310
 Alpha virt. eigenvalues --    0.22385   0.23122   0.25505   0.26972   0.30304
 Alpha virt. eigenvalues --    0.31819   0.32613   0.34191   0.35137   0.39222
 Alpha virt. eigenvalues --    0.46980   0.51858   0.52531   0.53916   0.54860
 Alpha virt. eigenvalues --    0.55386   0.57032   0.58076   0.58716   0.59487
 Alpha virt. eigenvalues --    0.59824   0.61013   0.61550   0.61682   0.62735
 Alpha virt. eigenvalues --    0.64996   0.65712   0.67166   0.68860   0.70290
 Alpha virt. eigenvalues --    0.71608   0.72757   0.76233   0.77337   0.80984
 Alpha virt. eigenvalues --    0.81336   0.82493   0.83507   0.84137   0.84621
 Alpha virt. eigenvalues --    0.86063   0.89101   0.89844   0.90536   0.90848
 Alpha virt. eigenvalues --    0.91404   0.92810   0.94433   0.95633   0.97647
 Alpha virt. eigenvalues --    0.98763   1.00584   1.00845   1.02742   1.06993
 Alpha virt. eigenvalues --    1.08308   1.11549   1.12197   1.14679   1.17162
 Alpha virt. eigenvalues --    1.18819   1.19370   1.25032   1.26187   1.29509
 Alpha virt. eigenvalues --    1.35488   1.40300   1.43242   1.44167   1.44188
 Alpha virt. eigenvalues --    1.48070   1.49154   1.50825   1.51967   1.54161
 Alpha virt. eigenvalues --    1.57978   1.64655   1.67053   1.69117   1.74681
 Alpha virt. eigenvalues --    1.75818   1.77301   1.79644   1.81646   1.82114
 Alpha virt. eigenvalues --    1.83238   1.87017   1.88883   1.90682   1.92142
 Alpha virt. eigenvalues --    1.94748   1.96745   1.98049   1.98723   2.00835
 Alpha virt. eigenvalues --    2.05311   2.05797   2.08375   2.13683   2.14441
 Alpha virt. eigenvalues --    2.15236   2.16618   2.20133   2.22322   2.25506
 Alpha virt. eigenvalues --    2.29991   2.31026   2.34197   2.37245   2.38123
 Alpha virt. eigenvalues --    2.40826   2.44990   2.53108   2.53429   2.57728
 Alpha virt. eigenvalues --    2.58919   2.59381   2.63252   2.65776   2.67287
 Alpha virt. eigenvalues --    2.72282   2.74849   2.75994   2.78825   2.79206
 Alpha virt. eigenvalues --    2.85424   2.92257   2.98435   3.05448   3.13464
 Alpha virt. eigenvalues --    3.40737   3.79870   3.84825   4.08950   4.11615
 Alpha virt. eigenvalues --    4.12230   4.14264   4.27083   4.33028   4.36831
 Alpha virt. eigenvalues --    4.43227   4.60714   4.70512
          Condensed to atoms (all electrons):
               1          2          3          4          5          6
     1  C    5.134015   0.346587   0.287302  -0.031630  -0.026247   0.297537
     2  H    0.346587   0.645914  -0.045782  -0.004496  -0.003767  -0.040034
     3  N    0.287302  -0.045782   6.978789   0.302000   0.302604  -0.040619
     4  H   -0.031630  -0.004496   0.302000   0.439432  -0.028448   0.005422
     5  H   -0.026247  -0.003767   0.302604  -0.028448   0.434336  -0.009546
     6  C    0.297537  -0.040034  -0.040619   0.005422  -0.009546   4.353453
     7  O   -0.081350   0.001341   0.001060  -0.000093   0.000078   0.572470
     8  O   -0.096250   0.000184  -0.001162   0.000059   0.010615   0.284573
     9  H    0.011177  -0.000603  -0.000389   0.000032  -0.000275  -0.007688
    10  C    0.332344  -0.050636  -0.063740  -0.008156   0.006546  -0.027984
    11  H   -0.034177   0.000575   0.004592   0.000091  -0.000232  -0.003636
    12  H   -0.034288   0.006617   0.003875  -0.000884  -0.000117  -0.006359
    13  C   -0.031071  -0.007297  -0.002234   0.009992  -0.000100   0.004604
    14  C    0.001111  -0.000031   0.000043   0.000479   0.000007  -0.000097
    15  C   -0.001566   0.001292  -0.002286   0.005101   0.000051   0.000209
    16  C   -0.000168   0.000003   0.000004  -0.000068  -0.000000   0.000001
    17  H    0.000176   0.000003  -0.000013   0.000000  -0.000000  -0.000007
    18  C    0.000153   0.000044  -0.000121  -0.000121   0.000003  -0.000003
    19  H    0.001976   0.005686  -0.000085  -0.000175  -0.000002  -0.000139
    20  C    0.000014  -0.000001   0.000007  -0.000053  -0.000000   0.000000
    21  H    0.000001   0.000000   0.000000  -0.000001   0.000000  -0.000000
    22  H    0.000002   0.000006  -0.000000  -0.000001  -0.000000  -0.000000
    23  H   -0.000000   0.000000   0.000000  -0.000000  -0.000000  -0.000000
               7          8          9         10         11         12
     1  C   -0.081350  -0.096250   0.011177   0.332344  -0.034177  -0.034288
     2  H    0.001341   0.000184  -0.000603  -0.050636   0.000575   0.006617
     3  N    0.001060  -0.001162  -0.000389  -0.063740   0.004592   0.003875
     4  H   -0.000093   0.000059   0.000032  -0.008156   0.000091  -0.000884
     5  H    0.000078   0.010615  -0.000275   0.006546  -0.000232  -0.000117
     6  C    0.572470   0.284573  -0.007688  -0.027984  -0.003636  -0.006359
     7  O    8.028994  -0.083962   0.011564   0.003491   0.006819   0.002858
     8  O   -0.083962   8.247338   0.217195   0.002669   0.000133  -0.000014
     9  H    0.011564   0.217195   0.357899  -0.000269  -0.000016  -0.000021
    10  C    0.003491   0.002669  -0.000269   5.221772   0.352114   0.354693
    11  H    0.006819   0.000133  -0.000016   0.352114   0.559861  -0.027342
    12  H    0.002858  -0.000014  -0.000021   0.354693  -0.027342   0.562971
    13  C    0.000741  -0.000012   0.000001   0.330832  -0.029274  -0.033467
    14  C   -0.000006   0.000000  -0.000000  -0.044418  -0.001534  -0.005788
    15  C    0.000001  -0.000002   0.000000  -0.071145  -0.002831   0.004558
    16  C   -0.000000  -0.000000   0.000000   0.006574  -0.000204   0.000230
    17  H    0.000001   0.000000  -0.000000  -0.010464   0.000228   0.007032
    18  C   -0.000000  -0.000000   0.000000   0.006132  -0.000072  -0.000135
    19  H    0.000004   0.000002  -0.000000  -0.009374   0.000781   0.000038
    20  C    0.000000   0.000000  -0.000000   0.000342   0.000037   0.000000
    21  H   -0.000000   0.000000  -0.000000  -0.000176   0.000003  -0.000010
    22  H   -0.000000   0.000000  -0.000000  -0.000175   0.000001   0.000003
    23  H    0.000000  -0.000000  -0.000000   0.000008  -0.000000  -0.000000
              13         14         15         16         17         18
     1  C   -0.031071   0.001111  -0.001566  -0.000168   0.000176   0.000153
     2  H   -0.007297  -0.000031   0.001292   0.000003   0.000003   0.000044
     3  N   -0.002234   0.000043  -0.002286   0.000004  -0.000013  -0.000121
     4  H    0.009992   0.000479   0.005101  -0.000068   0.000000  -0.000121
     5  H   -0.000100   0.000007   0.000051  -0.000000  -0.000000   0.000003
     6  C    0.004604  -0.000097   0.000209   0.000001  -0.000007  -0.000003
     7  O    0.000741  -0.000006   0.000001  -0.000000   0.000001  -0.000000
     8  O   -0.000012   0.000000  -0.000002  -0.000000   0.000000  -0.000000
     9  H    0.000001  -0.000000   0.000000   0.000000  -0.000000   0.000000
    10  C    0.330832  -0.044418  -0.071145   0.006574  -0.010464   0.006132
    11  H   -0.029274  -0.001534  -0.002831  -0.000204   0.000228  -0.000072
    12  H   -0.033467  -0.005788   0.004558   0.000230   0.007032  -0.000135
    13  C    4.674963   0.551630   0.531917  -0.019873  -0.042764  -0.017413
    14  C    0.551630   4.958986  -0.043058   0.521902   0.354579  -0.044947
    15  C    0.531917  -0.043058   5.000955  -0.046836   0.006517   0.523695
    16  C   -0.019873   0.521902  -0.046836   4.869607  -0.046432  -0.027061
    17  H   -0.042764   0.354579   0.006517  -0.046432   0.601951   0.000348
    18  C   -0.017413  -0.044947   0.523695  -0.027061   0.000348   4.863514
    19  H   -0.049049   0.005782   0.353905   0.000442  -0.000180  -0.043615
    20  C   -0.034650  -0.035661  -0.035714   0.550067   0.004834   0.550830
    21  H    0.003807  -0.039184   0.000802   0.356952  -0.005653   0.004632
    22  H    0.003516   0.000855  -0.040357   0.004593   0.000017   0.356998
    23  H    0.000715   0.004596   0.004775  -0.043012  -0.000178  -0.042984
              19         20         21         22         23
     1  C    0.001976   0.000014   0.000001   0.000002  -0.000000
     2  H    0.005686  -0.000001   0.000000   0.000006   0.000000
     3  N   -0.000085   0.000007   0.000000  -0.000000   0.000000
     4  H   -0.000175  -0.000053  -0.000001  -0.000001  -0.000000
     5  H   -0.000002  -0.000000   0.000000  -0.000000  -0.000000
     6  C   -0.000139   0.000000  -0.000000  -0.000000  -0.000000
     7  O    0.000004   0.000000  -0.000000  -0.000000   0.000000
     8  O    0.000002   0.000000   0.000000   0.000000  -0.000000
     9  H   -0.000000  -0.000000  -0.000000  -0.000000  -0.000000
    10  C   -0.009374   0.000342  -0.000176  -0.000175   0.000008
    11  H    0.000781   0.000037   0.000003   0.000001  -0.000000
    12  H    0.000038   0.000000  -0.000010   0.000003  -0.000000
    13  C   -0.049049  -0.034650   0.003807   0.003516   0.000715
    14  C    0.005782  -0.035661  -0.039184   0.000855   0.004596
    15  C    0.353905  -0.035714   0.000802  -0.040357   0.004775
    16  C    0.000442   0.550067   0.356952   0.004593  -0.043012
    17  H   -0.000180   0.004834  -0.005653   0.000017  -0.000178
    18  C   -0.043615   0.550830   0.004632   0.356998  -0.042984
    19  H    0.610834   0.004788   0.000018  -0.005658  -0.000186
    20  C    0.004788   4.853425  -0.043644  -0.042693   0.358798
    21  H    0.000018  -0.043644   0.596991  -0.000190  -0.005553
    22  H   -0.005658  -0.042693  -0.000190   0.599028  -0.005493
    23  H   -0.000186   0.358798  -0.005553  -0.005493   0.598848
 Mulliken charges:
               1
     1  C   -0.075646
     2  H    0.144397
     3  N   -0.723844
     4  H    0.311516
     5  H    0.314495
     6  C    0.617844
     7  O   -0.464010
     8  O   -0.581365
     9  H    0.411393
    10  C   -0.330982
    11  H    0.174083
    12  H    0.165551
    13  C    0.154488
    14  C   -0.185245
    15  C   -0.189982
    16  C   -0.126723
    17  H    0.130005
    18  C   -0.129877
    19  H    0.124209
    20  C   -0.130727
    21  H    0.131205
    22  H    0.129550
    23  H    0.129666
 Sum of Mulliken charges =  -0.00000
 Mulliken charges with hydrogens summed into heavy atoms:
               1
     1  C    0.068751
     3  N   -0.097833
     6  C    0.617844
     7  O   -0.464010
     8  O   -0.169972
    10  C    0.008652
    13  C    0.154488
    14  C   -0.055241
    15  C   -0.065774
    16  C    0.004481
    18  C   -0.000327
    20  C   -0.001061
 Electronic spatial extent (au):  <R**2>=           2681.5668
 Charge=             -0.0000 electrons
 Dipole moment (field-independent basis, Debye):
    X=             -0.4015    Y=             -2.1340    Z=             -0.0771  Tot=              2.1728
 Quadrupole moment (field-independent basis, Debye-Ang):
   XX=            -60.4040   YY=            -68.2528   ZZ=            -73.2458
   XY=             -4.8962   XZ=             -0.5618   YZ=              2.9707
 Traceless Quadrupole moment (field-independent basis, Debye-Ang):
   XX=              6.8968   YY=             -0.9519   ZZ=             -5.9449
   XY=             -4.8962   XZ=             -0.5618   YZ=              2.9707
 Octapole moment (field-independent basis, Debye-Ang**2):
  XXX=             63.7453  YYY=             -7.1558  ZZZ=             -3.7790  XYY=             -2.3270
  XXY=            -18.1534  XXZ=              9.4917  XZZ=              9.7430  YZZ=             -4.9056
  YYZ=              7.1488  XYZ=             -2.1771
 Hexadecapole moment (field-independent basis, Debye-Ang**3):
 XXXX=          -2264.7047 YYYY=           -402.8965 ZZZZ=           -262.0260 XXXY=            -44.4944
 XXXZ=             -4.9805 YYYX=            -14.1474 YYYZ=              0.6774 ZZZX=            -12.8660
 ZZZY=            -10.8429 XXYY=           -552.8221 XXZZ=           -531.2732 YYZZ=            -98.6493
 XXYZ=             39.9192 YYXZ=             12.8956 ZZXY=             -8.4519
 N-N= 6.644058334647D+02 E-N=-2.620701203336D+03  KE= 5.496221276852D+02
 Unable to Open any file for archive entry.
 1\1\GINC-CCC103\SP\RB3LYP TD-FC\6-31G(d)\C9H11N1O2\ROOT\21-Feb-2025\0\
 \# td=(nstat=3) b3lyp/6-31g(d)\\phe | No.6\\0,1\C,0,-1.419407,-0.34051
 8,-0.002847\H,0,-1.274936,-1.124861,0.766156\N,0,-1.307912,-0.845536,-
 1.375248\H,0,-0.364234,-1.201572,-1.517306\H,0,-1.949927,-1.622955,-1.
 511813\C,0,-2.839817,0.166568,0.228168\O,0,-3.15368,1.213473,0.746823\
 O,0,-3.758052,-0.742659,-0.188429\H,0,-4.6319,-0.348886,-0.00557\C,0,-
 0.404845,0.785081,0.236972\H,0,-0.605418,1.216096,1.225614\H,0,-0.6011
 06,1.578212,-0.49155\C,0,1.050204,0.357401,0.14648\C,0,1.983894,1.1988
 64,-0.474608\C,0,1.5194,-0.832751,0.723285\C,0,3.337554,0.864694,-0.52
 5934\H,0,1.641412,2.126807,-0.926754\C,0,2.871878,-1.174328,0.669969\H
 ,0,0.827481,-1.501184,1.230248\C,0,3.787458,-0.326556,0.045092\H,0,4.0
 39614,1.534637,-1.015578\H,0,3.209852,-2.103138,1.122492\H,0,4.84049,-
 0.591655,0.004186\\Version=ES64L-G16RevC.02\State=1-A\HF=-554.7844005\
 RMSD=5.377e-09\PG=C01 [X(C9H11N1O2)]\\@
 The archive entry for this job was punched.


 THOSE WITH THE GOLD MAKE THE RULES.

             -- PETER'S GOLDEN RULE
 Job cpu time:       0 days  0 hours  6 minutes 42.7 seconds.
 Elapsed time:       0 days  0 hours  0 minutes 55.4 seconds.
 File lengths (MBytes):  RWF=    272 Int=      0 D2E=      0 Chk=      8 Scr=      1
 Normal termination of Gaussian 16 at Fri Feb 21 15:15:08 2025.
