 Entering Gaussian System, Link 0=/apl/gaussian/16c02/g16/._.g16
 Initial command:
 /apl/gaussian/16c02/g16/l1.exe "/lwork/users/ux8/8287066.ccpbs1/gaussian/Gau-1244414.inp" -scrdir="/lwork/users/ux8/8287066.ccpbs1/gaussian/"
 Default CPUs for threads: 80,81,82,83,84,85,86,87
 Default is to use a total of   8 processors:
                                8 via shared-memory
                                1 via Linda
 Entering Link 1 = /apl/gaussian/16c02/g16/l1.exe PID=   1244415.
  
 Copyright (c) 1988-2021, Gaussian, Inc.  All Rights Reserved.
  
 This is part of the Gaussian(R) 16 program.  It is based on
 the Gaussian(R) 09 system (copyright 2009, Gaussian, Inc.),
 the Gaussian(R) 03 system (copyright 2003, Gaussian, Inc.),
 the Gaussian(R) 98 system (copyright 1998, Gaussian, Inc.),
 the Gaussian(R) 94 system (copyright 1995, Gaussian, Inc.),
 the Gaussian 92(TM) system (copyright 1992, Gaussian, Inc.),
 the Gaussian 90(TM) system (copyright 1990, Gaussian, Inc.),
 the Gaussian 88(TM) system (copyright 1988, Gaussian, Inc.),
 the Gaussian 86(TM) system (copyright 1986, Carnegie Mellon
 University), and the Gaussian 82(TM) system (copyright 1983,
 Carnegie Mellon University). Gaussian is a federally registered
 trademark of Gaussian, Inc.
  
 This software contains proprietary and confidential information,
 including trade secrets, belonging to Gaussian, Inc.
  
 This software is provided under written license and may be
 used, copied, transmitted, or stored only in accord with that
 written license.
  
 The following legend is applicable only to US Government
 contracts under FAR:
  
                    RESTRICTED RIGHTS LEGEND
  
 Use, reproduction and disclosure by the US Government is
 subject to restrictions as set forth in subparagraphs (a)
 and (c) of the Commercial Computer Software - Restricted
 Rights clause in FAR 52.227-19.
  
 Gaussian, Inc.
 340 Quinnipiac St., Bldg. 40, Wallingford CT 06492
  
  
 ---------------------------------------------------------------
 Warning -- This program may not be used in any manner that
 competes with the business of Gaussian, Inc. or will provide
 assistance to any competitor of Gaussian, Inc.  The licensee
 of this program is prohibited from giving any competitor of
 Gaussian, Inc. access to this program.  By using this program,
 the user acknowledges that Gaussian, Inc. is engaged in the
 business of creating and licensing software in the field of
 computational chemistry and represents and warrants to the
 licensee that it is not a competitor of Gaussian, Inc. and that
 it will not use this program in any manner prohibited above.
 ---------------------------------------------------------------
  

 Cite this work as:
 Gaussian 16, Revision C.02,
 M. J. Frisch, G. W. Trucks, H. B. Schlegel, G. E. Scuseria, 
 M. A. Robb, J. R. Cheeseman, G. Scalmani, V. Barone, 
 G. A. Petersson, H. Nakatsuji, X. Li, M. Caricato, A. V. Marenich, 
 J. Bloino, B. G. Janesko, R. Gomperts, B. Mennucci, H. P. Hratchian, 
 J. V. Ortiz, A. F. Izmaylov, J. L. Sonnenberg, D. Williams-Young, 
 F. Ding, F. Lipparini, F. Egidi, J. Goings, B. Peng, A. Petrone, 
 T. Henderson, D. Ranasinghe, V. G. Zakrzewski, J. Gao, N. Rega, 
 G. Zheng, W. Liang, M. Hada, M. Ehara, K. Toyota, R. Fukuda, 
 J. Hasegawa, M. Ishida, T. Nakajima, Y. Honda, O. Kitao, H. Nakai, 
 T. Vreven, K. Throssell, J. A. Montgomery, Jr., J. E. Peralta, 
 F. Ogliaro, M. J. Bearpark, J. J. Heyd, E. N. Brothers, K. N. Kudin, 
 V. N. Staroverov, T. A. Keith, R. Kobayashi, J. Normand, 
 K. Raghavachari, A. P. Rendell, J. C. Burant, S. S. Iyengar, 
 J. Tomasi, M. Cossi, J. M. Millam, M. Klene, C. Adamo, R. Cammi, 
 J. W. Ochterski, R. L. Martin, K. Morokuma, O. Farkas, 
 J. B. Foresman, and D. J. Fox, Gaussian, Inc., Wallingford CT, 2019.
 
 ******************************************
 Gaussian 16:  ES64L-G16RevC.02  7-Dec-2021
                21-Feb-2025 
 ******************************************
 %chk=phe.007.tddft.chk
 %mem=9600MB
 SetSPE:  set environment variable "OMP_PROC_BIND" = "true"
 SetSPE:  set environment variable "OMP_PLACES" = "{80},{81},{82},{83},{84},{85},{86},{87}"
 -----------------------------
 # td=(nstat=3) b3lyp/6-31g(d)
 -----------------------------
 1/38=1,172=1/1;
 2/12=2,17=6,18=5,40=1/2;
 3/5=1,6=6,7=1,11=9,25=1,30=1,74=-5/1,2,3,8;
 4//1;
 5/5=2,38=5/2;
 8/6=1,10=2,108=3/1;
 9/41=3,42=1,70=2/14;
 6/7=2,8=2,9=2,10=2/1;
 99/5=1,9=1/99;
 ----------
 phe | No.7
 ----------
 Symbolic Z-matrix:
 Charge =  0 Multiplicity = 1
 C                    -1.42765  -0.33999   0.03538 
 H                    -1.2872   -1.03256   0.88893 
 N                    -1.33539  -0.99866  -1.27166 
 H                    -0.39552  -1.37343  -1.38664 
 H                    -1.98377  -1.78156  -1.31301 
 C                    -2.8403    0.20768   0.21751 
 O                    -3.1381    1.31017   0.61668 
 O                    -3.77193  -0.73164  -0.08718 
 H                    -4.63975  -0.30917   0.05588 
 C                    -0.40078   0.79307   0.14 
 H                    -0.59405   1.33856   1.07217 
 H                    -0.59424   1.50028  -0.67342 
 C                     1.05469   0.35647   0.09662 
 C                     2.01425   1.22871  -0.4383 
 C                     1.50047  -0.86254   0.62821 
 C                     3.3688    0.89802  -0.4467 
 H                     1.69025   2.17911  -0.85654 
 C                     2.85565  -1.20114   0.61697 
 H                     0.79003  -1.55992   1.0651 
 C                     3.79608  -0.32233   0.08012 
 H                     4.0903    1.59244  -0.86944 
 H                     3.17428  -2.15377   1.03252 
 H                     4.85037  -0.58534   0.0712 
 
                          Input orientation:                          
 ---------------------------------------------------------------------
 Center     Atomic      Atomic             Coordinates (Angstroms)
 Number     Number       Type             X           Y           Z
 ---------------------------------------------------------------------
      1          6           0       -1.427652   -0.339988    0.035381
      2          1           0       -1.287197   -1.032556    0.888925
      3          7           0       -1.335394   -0.998659   -1.271662
      4          1           0       -0.395518   -1.373431   -1.386644
      5          1           0       -1.983769   -1.781564   -1.313006
      6          6           0       -2.840303    0.207679    0.217512
      7          8           0       -3.138099    1.310170    0.616677
      8          8           0       -3.771925   -0.731639   -0.087178
      9          1           0       -4.639749   -0.309168    0.055879
     10          6           0       -0.400778    0.793068    0.139997
     11          1           0       -0.594052    1.338558    1.072172
     12          1           0       -0.594235    1.500282   -0.673421
     13          6           0        1.054690    0.356474    0.096622
     14          6           0        2.014253    1.228711   -0.438299
     15          6           0        1.500469   -0.862536    0.628205
     16          6           0        3.368797    0.898024   -0.446701
     17          1           0        1.690249    2.179108   -0.856538
     18          6           0        2.855649   -1.201142    0.616974
     19          1           0        0.790031   -1.559924    1.065101
     20          6           0        3.796081   -0.322334    0.080124
     21          1           0        4.090303    1.592438   -0.869435
     22          1           0        3.174276   -2.153768    1.032522
     23          1           0        4.850371   -0.585338    0.071203
 ---------------------------------------------------------------------
                    Distance matrix (angstroms):
                    1          2          3          4          5
     1  C    0.000000
     2  H    1.108113   0.000000
     3  N    1.466533   2.161390   0.000000
     4  H    2.038495   2.467692   1.018352   0.000000
     5  H    2.050745   2.427906   1.017369   1.641504   0.000000
     6  C    1.526006   2.097884   2.436728   3.324184   2.652023
     7  O    2.446744   2.998053   3.485149   4.328598   3.822953
     8  O    2.379922   2.686485   2.722312   3.674321   2.408838
     9  H    3.212310   3.529428   3.627192   4.607280   3.331070
    10  C    1.532720   2.163223   2.465071   2.650354   3.353477
    11  H    2.141808   2.477138   3.392010   3.666071   4.165999
    12  H    2.140929   3.055551   2.674306   2.967558   3.620827
    13  C    2.578921   2.835769   3.069379   2.701065   3.973725
    14  C    3.812073   4.215972   4.108017   3.671171   5.080457
    15  C    3.032885   2.804989   3.416159   2.813432   4.093022
    16  C    4.977047   5.214338   5.138811   4.495895   6.048193
    17  H    4.106418   4.714511   4.407385   4.153549   5.421595
    18  C    4.407551   4.155184   4.601390   3.822860   5.242297
    19  H    2.732524   2.150356   3.208257   2.729718   3.660394
    20  C    5.223954   5.195988   5.349465   4.563520   6.121832
    21  H    5.916147   6.236981   6.026090   5.402451   6.962399
    22  H    5.045972   4.602443   5.194292   4.382319   5.678509
    23  H    6.282918   6.207932   6.343328   5.501433   7.074776
                    6          7          8          9         10
     6  C    0.000000
     7  O    1.209753   0.000000
     8  O    1.357599   2.250807   0.000000
     9  H    1.879165   2.278531   0.975738   0.000000
    10  C    2.509974   2.826224   3.706882   4.380739   0.000000
    11  H    2.656120   2.584658   3.965941   4.485033   1.097208
    12  H    2.740329   2.858625   3.927196   4.491344   1.095092
    13  C    3.899708   4.331221   4.951160   5.733356   1.520159
    14  C    5.003929   5.259880   6.119323   6.847264   2.521227
    15  C    4.489580   5.122216   5.322316   6.191611   2.567900
    16  C    6.282569   6.606083   7.333142   8.114598   3.816402
    17  H    5.056285   5.122339   6.236963   6.862426   2.699367
    18  C    5.881175   6.498592   6.681392   7.569111   3.848207
    19  H    4.125791   4.885563   4.777577   5.662635   2.794712
    20  C    6.658932   7.143935   7.580913   8.435875   4.342963
    21  H    7.150686   7.384985   8.235769   8.982545   4.672018
    22  H    6.512744   7.212342   7.178153   8.087977   4.718205
    23  H    7.732836   8.228374   8.624991   9.494150   5.429484
                   11         12         13         14         15
    11  H    0.000000
    12  H    1.753069   0.000000
    13  C    2.152797   2.149469   0.000000
    14  C    3.016097   2.633105   1.402747   0.000000
    15  C    3.070658   3.415395   1.402599   2.403064   0.000000
    16  C    4.266757   4.014940   2.437943   1.394351   2.783100
    17  H    3.105556   2.390231   2.152776   1.087730   3.389997
    18  C    4.307867   4.567769   2.437291   2.779520   1.396887
    19  H    3.211998   3.781998   2.163464   3.396383   1.087175
    20  C    4.797498   4.812965   2.824230   2.418556   2.421166
    21  H    5.077152   4.689543   3.416990   2.151316   3.870021
    22  H    5.137919   5.519420   3.416119   3.866540   2.152297
    23  H    5.860466   5.877756   3.910863   3.404986   3.407188
                   16         17         18         19         20
    16  C    0.000000
    17  H    2.150969   0.000000
    18  C    2.408573   3.867232   0.000000
    19  H    3.870024   4.299238   2.143903   0.000000
    20  C    1.396206   3.401334   1.394605   3.396785   0.000000
    21  H    1.086962   2.470750   3.396744   4.956976   2.157448
    22  H    3.396965   4.954261   1.087060   2.457303   2.155888
    23  H    2.159548   4.299911   2.157776   4.292320   1.086636
                   21         22         23
    21  H    0.000000
    22  H    4.300070   0.000000
    23  H    2.491026   2.488655   0.000000
 Stoichiometry    C9H11NO2
 Framework group  C1[X(C9H11NO2)]
 Deg. of freedom    63
 Full point group                 C1      NOp   1
 Largest Abelian subgroup         C1      NOp   1
 Largest concise Abelian subgroup C1      NOp   1
                         Standard orientation:                         
 ---------------------------------------------------------------------
 Center     Atomic      Atomic             Coordinates (Angstroms)
 Number     Number       Type             X           Y           Z
 ---------------------------------------------------------------------
      1          6           0        1.427652   -0.339988   -0.035381
      2          1           0        1.287197   -1.032556   -0.888925
      3          7           0        1.335394   -0.998659    1.271662
      4          1           0        0.395518   -1.373431    1.386644
      5          1           0        1.983769   -1.781564    1.313006
      6          6           0        2.840303    0.207679   -0.217512
      7          8           0        3.138099    1.310170   -0.616677
      8          8           0        3.771925   -0.731639    0.087178
      9          1           0        4.639749   -0.309168   -0.055879
     10          6           0        0.400778    0.793068   -0.139997
     11          1           0        0.594052    1.338558   -1.072172
     12          1           0        0.594235    1.500282    0.673421
     13          6           0       -1.054690    0.356474   -0.096622
     14          6           0       -2.014253    1.228711    0.438299
     15          6           0       -1.500469   -0.862536   -0.628205
     16          6           0       -3.368797    0.898024    0.446701
     17          1           0       -1.690249    2.179108    0.856538
     18          6           0       -2.855649   -1.201142   -0.616974
     19          1           0       -0.790031   -1.559924   -1.065101
     20          6           0       -3.796081   -0.322334   -0.080124
     21          1           0       -4.090303    1.592438    0.869435
     22          1           0       -3.174276   -2.153768   -1.032522
     23          1           0       -4.850371   -0.585338   -0.071203
 ---------------------------------------------------------------------
 Rotational constants (GHZ):           2.5914009           0.4337645           0.4033195
 Standard basis: 6-31G(d) (6D, 7F)
 There are   202 symmetry adapted cartesian basis functions of A   symmetry.
 There are   202 symmetry adapted basis functions of A   symmetry.
   202 basis functions,   380 primitive gaussians,   202 cartesian basis functions
    44 alpha electrons       44 beta electrons
       nuclear repulsion energy       664.3018550303 Hartrees.
 NAtoms=   23 NActive=   23 NUniq=   23 SFac= 1.00D+00 NAtFMM=   60 NAOKFM=F Big=F
 Integral buffers will be    131072 words long.
 Regular integral format.
 Two-electron integral symmetry is turned on.
 One-electron integrals computed using PRISM.
 NBasis=   202 RedAO= T EigKep=  4.60D-04  NBF=   202
 NBsUse=   202 1.00D-06 EigRej= -1.00D+00 NBFU=   202
 ExpMin= 1.61D-01 ExpMax= 5.48D+03 ExpMxC= 8.25D+02 IAcc=3 IRadAn=         5 AccDes= 0.00D+00
 Harris functional with IExCor=  402 and IRadAn=       5 diagonalized for initial guess.
 HarFok:  IExCor=  402 AccDes= 0.00D+00 IRadAn=         5 IDoV= 1 UseB2=F ITyADJ=14
 ICtDFT=  3500011 ScaDFX=  1.000000  1.000000  1.000000  1.000000
 FoFCou: FMM=F IPFlag=           0 FMFlag=      100000 FMFlg1=           0
         NFxFlg=           0 DoJE=T BraDBF=F KetDBF=T FulRan=T
         wScrn=  0.000000 ICntrl=       500 IOpCl=  0 I1Cent=   200000004 NGrid=           0
         NMat0=    1 NMatS0=      1 NMatT0=    0 NMatD0=    1 NMtDS0=    0 NMtDT0=    0
 Petite list used in FoFCou.
 Requested convergence on RMS density matrix=1.00D-08 within 128 cycles.
 Requested convergence on MAX density matrix=1.00D-06.
 Requested convergence on             energy=1.00D-06.
 No special actions if energy rises.
 Integral accuracy reduced to 1.0D-05 until final iterations.
 Initial convergence to 1.0D-05 achieved.  Increase integral accuracy.
 SCF Done:  E(RB3LYP) =  -554.783829096     A.U. after   14 cycles
            NFock= 14  Conv=0.50D-08     -V/T= 2.0094
 DoSCS=F DFT=T ScalE2(SS,OS)=  1.000000  1.000000
 ExpMin= 1.61D-01 ExpMax= 5.48D+03 ExpMxC= 8.25D+02 IAcc=3 IRadAn=         5 AccDes= 0.00D+00
 HarFok:  IExCor=  205 AccDes= 0.00D+00 IRadAn=         5 IDoV=-2 UseB2=F ITyADJ=14
 ICtDFT= 12500011 ScaDFX=  1.000000  1.000000  1.000000  1.000000
 Range of M.O.s used for correlation:    13   202
 NBasis=   202 NAE=    44 NBE=    44 NFC=    12 NFV=     0
 NROrb=    190 NOA=    32 NOB=    32 NVA=   158 NVB=   158
 Keep R1, R2, and R3 ints in memory in canonical form, NReq=656629584.
 Orbital symmetries:
       Occupied  (A) (A) (A) (A) (A) (A) (A) (A) (A) (A) (A) (A)
                 (A) (A) (A) (A) (A) (A) (A) (A) (A) (A) (A) (A)
                 (A) (A) (A) (A) (A) (A) (A) (A) (A) (A) (A) (A)
                 (A) (A) (A) (A) (A) (A) (A) (A)
       Virtual   (A) (A) (A) (A) (A) (A) (A) (A) (A) (A) (A) (A)
                 (A) (A) (A) (A) (A) (A) (A) (A) (A) (A) (A) (A)
                 (A) (A) (A) (A) (A) (A) (A) (A) (A) (A) (A) (A)
                 (A) (A) (A) (A) (A) (A) (A) (A) (A) (A) (A) (A)
                 (A) (A) (A) (A) (A) (A) (A) (A) (A) (A) (A) (A)
                 (A) (A) (A) (A) (A) (A) (A) (A) (A) (A) (A) (A)
                 (A) (A) (A) (A) (A) (A) (A) (A) (A) (A) (A) (A)
                 (A) (A) (A) (A) (A) (A) (A) (A) (A) (A) (A) (A)
                 (A) (A) (A) (A) (A) (A) (A) (A) (A) (A) (A) (A)
                 (A) (A) (A) (A) (A) (A) (A) (A) (A) (A) (A) (A)
                 (A) (A) (A) (A) (A) (A) (A) (A) (A) (A) (A) (A)
                 (A) (A) (A) (A) (A) (A) (A) (A) (A) (A) (A) (A)
                 (A) (A) (A) (A) (A) (A) (A) (A) (A) (A) (A) (A)
                 (A) (A)
    12 initial guesses have been made.
 Convergence on wavefunction:    0.001000000000000
 Iteration     1 Dimension    12 NMult     0 NNew     12
 CISAX will form    12 AO SS matrices at one time.
 New state      1 was old state      3
 New state      2 was old state      5
 New state      3 was old state      2
 Iteration     2 Dimension    18 NMult    12 NNew      6
 Iteration     3 Dimension    24 NMult    18 NNew      6
 Iteration     4 Dimension    30 NMult    24 NNew      6
 Iteration     5 Dimension    36 NMult    30 NNew      6
 Iteration     6 Dimension    38 NMult    36 NNew      2
 Iteration     7 Dimension    40 NMult    38 NNew      2
 ***********************************************************************
 Excited states from <AA,BB:AA,BB> singles matrix:
 ***********************************************************************
 
 Ground to excited state transition densities written to RWF  633
 Ground to excited state transition electric dipole moments (Au):
       state          X           Y           Z        Dip. S.      Osc.
         1        -0.0392      0.1025      0.0208      0.0125      0.0017
         2         0.0818      0.0468      0.0542      0.0118      0.0016
         3         0.0293      0.0884     -0.0248      0.0093      0.0013
 Ground to excited state transition velocity dipole moments (Au):
       state          X           Y           Z        Dip. S.      Osc.
         1         0.0075     -0.0193     -0.0040      0.0004      0.0015
         2        -0.0128     -0.0116     -0.0117      0.0004      0.0015
         3        -0.0102     -0.0214      0.0045      0.0006      0.0018
 Ground to excited state transition magnetic dipole moments (Au):
       state          X           Y           Z
         1         0.0002     -0.0747      0.2814
         2        -0.2618     -0.1553      0.1296
         3         0.1190      0.2548      0.1373
 Ground to excited state transition velocity quadrupole moments (Au):
       state          XX          YY          ZZ          XY          XZ          YZ
         1        -0.0313     -0.0044      0.0202      0.0981      0.0683      0.0081
         2        -0.0866     -0.0320      0.0944     -0.0756      0.0259      0.0670
         3         0.1477     -0.0067     -0.0030      0.0832      0.0805     -0.0149
 <0|del|b> * <b|rxdel|0> + <0|del|b> * <b|delr+rdel|0>
 Rotatory Strengths (R) in cgs (10**-40 erg-esu-cm/Gauss)
       state          XX          YY          ZZ    R(velocity)    E-M Angle
         1         2.2106     -1.1904      0.1154      0.3785       87.02
         2         2.6103      0.1844     10.1545      4.3164       58.12
         3        -4.5650     -1.3666    -14.2025     -6.7114      143.30
 1/2[<0|r|b>*<b|rxdel|0> + (<0|rxdel|b>*<b|r|0>)*]
 Rotatory Strengths (R) in cgs (10**-40 erg-esu-cm/Gauss)
       state          XX          YY          ZZ     R(length)
         1         0.0063      5.4153     -4.1440      0.4259
         2        15.1517      5.1428     -4.9648      5.1099
         3        -2.4654    -15.9234      2.4082     -5.3268
  1/2[<0|del|b>*<b|r|0> + (<0|r|b>*<b|del|0>)*] (Au)
       state          X           Y           Z        Dip. S.   Osc.(frdel)
         1        -0.0003     -0.0020     -0.0001      0.0024      0.0016
         2        -0.0011     -0.0005     -0.0006      0.0022      0.0015
         3        -0.0003     -0.0019     -0.0001      0.0023      0.0015

 Excitation energies and oscillator strengths:
 
 Excited State   1:      Singlet-A      5.3991 eV  229.64 nm  f=0.0017  <S**2>=0.000
      42 -> 45         0.12924
      42 -> 46        -0.37953
      43 -> 45         0.37968
      43 -> 47        -0.10674
      44 -> 45         0.31331
      44 -> 46         0.27330
 This state for optimization and/or second-order correction.
 Total Energy, E(TD-HF/TD-DFT) =  -554.585417329    
 Copying the excited state density for this state as the 1-particle RhoCI density.
 
 Excited State   2:      Singlet-A      5.4238 eV  228.59 nm  f=0.0016  <S**2>=0.000
      41 -> 47        -0.20563
      42 -> 47         0.11475
      43 -> 45        -0.22963
      43 -> 47        -0.26838
      44 -> 45         0.30481
      44 -> 46        -0.17209
      44 -> 47         0.41301
 
 Excited State   3:      Singlet-A      5.7891 eV  214.17 nm  f=0.0013  <S**2>=0.000
      41 -> 45         0.10753
      41 -> 47         0.17682
      43 -> 45        -0.19015
      43 -> 47         0.24208
      44 -> 45         0.45164
      44 -> 46        -0.27108
      44 -> 47        -0.26078
 SavETr:  write IOETrn=   770 NScale= 10 NData=  16 NLR=1 NState=    3 LETran=      64.

 **********************************************************************

            Population analysis using the SCF Density.

 **********************************************************************

 Orbital symmetries:
       Occupied  (A) (A) (A) (A) (A) (A) (A) (A) (A) (A) (A) (A)
                 (A) (A) (A) (A) (A) (A) (A) (A) (A) (A) (A) (A)
                 (A) (A) (A) (A) (A) (A) (A) (A) (A) (A) (A) (A)
                 (A) (A) (A) (A) (A) (A) (A) (A)
       Virtual   (A) (A) (A) (A) (A) (A) (A) (A) (A) (A) (A) (A)
                 (A) (A) (A) (A) (A) (A) (A) (A) (A) (A) (A) (A)
                 (A) (A) (A) (A) (A) (A) (A) (A) (A) (A) (A) (A)
                 (A) (A) (A) (A) (A) (A) (A) (A) (A) (A) (A) (A)
                 (A) (A) (A) (A) (A) (A) (A) (A) (A) (A) (A) (A)
                 (A) (A) (A) (A) (A) (A) (A) (A) (A) (A) (A) (A)
                 (A) (A) (A) (A) (A) (A) (A) (A) (A) (A) (A) (A)
                 (A) (A) (A) (A) (A) (A) (A) (A) (A) (A) (A) (A)
                 (A) (A) (A) (A) (A) (A) (A) (A) (A) (A) (A) (A)
                 (A) (A) (A) (A) (A) (A) (A) (A) (A) (A) (A) (A)
                 (A) (A) (A) (A) (A) (A) (A) (A) (A) (A) (A) (A)
                 (A) (A) (A) (A) (A) (A) (A) (A) (A) (A) (A) (A)
                 (A) (A) (A) (A) (A) (A) (A) (A) (A) (A) (A) (A)
                 (A) (A)
 The electronic state is 1-A.
 Alpha  occ. eigenvalues --  -19.20099 -19.14396 -14.31857 -10.32249 -10.23437
 Alpha  occ. eigenvalues --  -10.19961 -10.19172 -10.19049 -10.19044 -10.18954
 Alpha  occ. eigenvalues --  -10.18918 -10.18759  -1.10919  -1.01881  -0.89598
 Alpha  occ. eigenvalues --   -0.85335  -0.77735  -0.74393  -0.72813  -0.67169
 Alpha  occ. eigenvalues --   -0.60994  -0.59697  -0.56608  -0.51773  -0.50430
 Alpha  occ. eigenvalues --   -0.49374  -0.48586  -0.46037  -0.45266  -0.44971
 Alpha  occ. eigenvalues --   -0.42275  -0.41629  -0.41269  -0.39226  -0.38709
 Alpha  occ. eigenvalues --   -0.36950  -0.35171  -0.33896  -0.33633  -0.32266
 Alpha  occ. eigenvalues --   -0.28276  -0.25147  -0.24400  -0.23844
 Alpha virt. eigenvalues --   -0.00364  -0.00169   0.00682   0.06813   0.09127
 Alpha virt. eigenvalues --    0.10437   0.12196   0.13157   0.14348   0.15845
 Alpha virt. eigenvalues --    0.16342   0.16606   0.18653   0.19511   0.20033
 Alpha virt. eigenvalues --    0.22270   0.23133   0.25613   0.26922   0.30201
 Alpha virt. eigenvalues --    0.31847   0.32377   0.34068   0.35454   0.39537
 Alpha virt. eigenvalues --    0.47268   0.51757   0.52569   0.53751   0.55115
 Alpha virt. eigenvalues --    0.55455   0.56852   0.58252   0.58673   0.59545
 Alpha virt. eigenvalues --    0.60054   0.61155   0.61502   0.61781   0.63087
 Alpha virt. eigenvalues --    0.64768   0.66047   0.67583   0.68635   0.69707
 Alpha virt. eigenvalues --    0.71664   0.73582   0.75751   0.77399   0.81092
 Alpha virt. eigenvalues --    0.81215   0.82830   0.83500   0.84205   0.84851
 Alpha virt. eigenvalues --    0.86317   0.89211   0.89755   0.90352   0.91001
 Alpha virt. eigenvalues --    0.91577   0.92703   0.94654   0.95553   0.98147
 Alpha virt. eigenvalues --    0.98879   1.00112   1.01514   1.02582   1.06953
 Alpha virt. eigenvalues --    1.08026   1.11357   1.12079   1.15223   1.16685
 Alpha virt. eigenvalues --    1.18945   1.19838   1.24881   1.25723   1.29833
 Alpha virt. eigenvalues --    1.34248   1.40397   1.43098   1.43935   1.44410
 Alpha virt. eigenvalues --    1.48127   1.49165   1.50966   1.52044   1.53864
 Alpha virt. eigenvalues --    1.58031   1.64611   1.67561   1.69730   1.74664
 Alpha virt. eigenvalues --    1.76293   1.77227   1.79620   1.81870   1.82183
 Alpha virt. eigenvalues --    1.83693   1.86810   1.88974   1.90857   1.92208
 Alpha virt. eigenvalues --    1.94679   1.96994   1.98209   1.99464   2.00985
 Alpha virt. eigenvalues --    2.05241   2.05848   2.09128   2.13554   2.14378
 Alpha virt. eigenvalues --    2.15365   2.16556   2.19930   2.22143   2.25445
 Alpha virt. eigenvalues --    2.29077   2.31111   2.34496   2.37410   2.38668
 Alpha virt. eigenvalues --    2.40876   2.45043   2.53496   2.53622   2.57242
 Alpha virt. eigenvalues --    2.58515   2.59688   2.63316   2.65629   2.67371
 Alpha virt. eigenvalues --    2.72275   2.75013   2.75938   2.78972   2.79300
 Alpha virt. eigenvalues --    2.85985   2.92068   2.98388   3.05589   3.13770
 Alpha virt. eigenvalues --    3.40781   3.79960   3.84952   4.08914   4.11638
 Alpha virt. eigenvalues --    4.12461   4.13744   4.27266   4.33197   4.35953
 Alpha virt. eigenvalues --    4.43062   4.60389   4.70955
          Condensed to atoms (all electrons):
               1          2          3          4          5          6
     1  C    5.130962   0.345282   0.288928  -0.031521  -0.026029   0.298180
     2  H    0.345282   0.650071  -0.046834  -0.004752  -0.003939  -0.040357
     3  N    0.288928  -0.046834   6.979146   0.301970   0.302623  -0.040696
     4  H   -0.031521  -0.004752   0.301970   0.438882  -0.028396   0.005359
     5  H   -0.026029  -0.003939   0.302623  -0.028396   0.434339  -0.009639
     6  C    0.298180  -0.040357  -0.040696   0.005359  -0.009639   4.351742
     7  O   -0.081664   0.001343   0.001064  -0.000092   0.000075   0.572646
     8  O   -0.096328   0.000232  -0.001149   0.000065   0.010556   0.284949
     9  H    0.011250  -0.000611  -0.000396   0.000031  -0.000274  -0.007748
    10  C    0.332737  -0.050544  -0.063692  -0.008114   0.006567  -0.027976
    11  H   -0.033352   0.000420   0.004579   0.000093  -0.000232  -0.003657
    12  H   -0.034249   0.006740   0.003856  -0.001002  -0.000125  -0.006373
    13  C   -0.030341  -0.006735  -0.001976   0.008589  -0.000118   0.004524
    14  C    0.002018  -0.000059  -0.000012   0.000104   0.000008  -0.000097
    15  C   -0.001108   0.000985  -0.003075   0.007451   0.000084   0.000255
    16  C   -0.000163   0.000004   0.000004  -0.000063  -0.000000   0.000001
    17  H    0.000169   0.000002  -0.000011  -0.000001   0.000000  -0.000006
    18  C    0.000107   0.000038  -0.000138  -0.000124   0.000006  -0.000004
    19  H    0.003438   0.004177   0.000107   0.000074   0.000055  -0.000088
    20  C    0.000014  -0.000003   0.000005  -0.000036  -0.000000   0.000000
    21  H    0.000001   0.000000   0.000000  -0.000000   0.000000  -0.000000
    22  H    0.000002   0.000007  -0.000001  -0.000002  -0.000000  -0.000000
    23  H   -0.000000   0.000000   0.000000  -0.000000  -0.000000  -0.000000
               7          8          9         10         11         12
     1  C   -0.081664  -0.096328   0.011250   0.332737  -0.033352  -0.034249
     2  H    0.001343   0.000232  -0.000611  -0.050544   0.000420   0.006740
     3  N    0.001064  -0.001149  -0.000396  -0.063692   0.004579   0.003856
     4  H   -0.000092   0.000065   0.000031  -0.008114   0.000093  -0.001002
     5  H    0.000075   0.010556  -0.000274   0.006567  -0.000232  -0.000125
     6  C    0.572646   0.284949  -0.007748  -0.027976  -0.003657  -0.006373
     7  O    8.029286  -0.084030   0.011540   0.003480   0.007097   0.002814
     8  O   -0.084030   8.247327   0.217358   0.002646   0.000139  -0.000018
     9  H    0.011540   0.217358   0.357612  -0.000270  -0.000017  -0.000020
    10  C    0.003480   0.002646  -0.000270   5.225520   0.351426   0.354425
    11  H    0.007097   0.000139  -0.000017   0.351426   0.558966  -0.027749
    12  H    0.002814  -0.000018  -0.000020   0.354425  -0.027749   0.562868
    13  C    0.000752  -0.000012   0.000001   0.330457  -0.029034  -0.032953
    14  C   -0.000005   0.000000  -0.000000  -0.047456  -0.002827  -0.005655
    15  C   -0.000000  -0.000002   0.000000  -0.071589  -0.001930   0.004021
    16  C   -0.000000  -0.000000   0.000000   0.006333  -0.000184   0.000209
    17  H    0.000001   0.000000  -0.000000  -0.010020   0.000432   0.006122
    18  C   -0.000000  -0.000000   0.000000   0.006457  -0.000105  -0.000132
    19  H    0.000003   0.000002  -0.000000  -0.010391   0.000397   0.000031
    20  C    0.000000   0.000000  -0.000000   0.000326   0.000038   0.000003
    21  H   -0.000000   0.000000  -0.000000  -0.000176   0.000003  -0.000009
    22  H   -0.000000   0.000000  -0.000000  -0.000176   0.000002   0.000003
    23  H    0.000000  -0.000000  -0.000000   0.000008  -0.000000  -0.000000
              13         14         15         16         17         18
     1  C   -0.030341   0.002018  -0.001108  -0.000163   0.000169   0.000107
     2  H   -0.006735  -0.000059   0.000985   0.000004   0.000002   0.000038
     3  N   -0.001976  -0.000012  -0.003075   0.000004  -0.000011  -0.000138
     4  H    0.008589   0.000104   0.007451  -0.000063  -0.000001  -0.000124
     5  H   -0.000118   0.000008   0.000084  -0.000000   0.000000   0.000006
     6  C    0.004524  -0.000097   0.000255   0.000001  -0.000006  -0.000004
     7  O    0.000752  -0.000005  -0.000000  -0.000000   0.000001  -0.000000
     8  O   -0.000012   0.000000  -0.000002  -0.000000   0.000000  -0.000000
     9  H    0.000001  -0.000000   0.000000   0.000000  -0.000000   0.000000
    10  C    0.330457  -0.047456  -0.071589   0.006333  -0.010020   0.006457
    11  H   -0.029034  -0.002827  -0.001930  -0.000184   0.000432  -0.000105
    12  H   -0.032953  -0.005655   0.004021   0.000209   0.006122  -0.000132
    13  C    4.675429   0.546417   0.535828  -0.018243  -0.045054  -0.017514
    14  C    0.546417   4.959088  -0.040709   0.524146   0.355895  -0.045136
    15  C    0.535828  -0.040709   4.998573  -0.046915   0.006453   0.520426
    16  C   -0.018243   0.524146  -0.046915   4.867868  -0.046222  -0.026909
    17  H   -0.045054   0.355895   0.006453  -0.046222   0.604090   0.000339
    18  C   -0.017514  -0.045136   0.520426  -0.026909   0.000339   4.867351
    19  H   -0.049335   0.005827   0.354155   0.000444  -0.000179  -0.044157
    20  C   -0.034903  -0.035352  -0.035353   0.548333   0.004891   0.552369
    21  H    0.003793  -0.039283   0.000811   0.356968  -0.005708   0.004633
    22  H    0.003544   0.000870  -0.040142   0.004575   0.000017   0.356671
    23  H    0.000728   0.004573   0.004764  -0.042969  -0.000179  -0.042953
              19         20         21         22         23
     1  C    0.003438   0.000014   0.000001   0.000002  -0.000000
     2  H    0.004177  -0.000003   0.000000   0.000007   0.000000
     3  N    0.000107   0.000005   0.000000  -0.000001   0.000000
     4  H    0.000074  -0.000036  -0.000000  -0.000002  -0.000000
     5  H    0.000055  -0.000000   0.000000  -0.000000  -0.000000
     6  C   -0.000088   0.000000  -0.000000  -0.000000  -0.000000
     7  O    0.000003   0.000000  -0.000000  -0.000000   0.000000
     8  O    0.000002   0.000000   0.000000   0.000000  -0.000000
     9  H   -0.000000  -0.000000  -0.000000  -0.000000  -0.000000
    10  C   -0.010391   0.000326  -0.000176  -0.000176   0.000008
    11  H    0.000397   0.000038   0.000003   0.000002  -0.000000
    12  H    0.000031   0.000003  -0.000009   0.000003  -0.000000
    13  C   -0.049335  -0.034903   0.003793   0.003544   0.000728
    14  C    0.005827  -0.035352  -0.039283   0.000870   0.004573
    15  C    0.354155  -0.035353   0.000811  -0.040142   0.004764
    16  C    0.000444   0.548333   0.356968   0.004575  -0.042969
    17  H   -0.000179   0.004891  -0.005708   0.000017  -0.000179
    18  C   -0.044157   0.552369   0.004633   0.356671  -0.042953
    19  H    0.612681   0.004800   0.000018  -0.005676  -0.000187
    20  C    0.004800   4.852694  -0.043649  -0.042665   0.358809
    21  H    0.000018  -0.043649   0.597105  -0.000191  -0.005522
    22  H   -0.005676  -0.042665  -0.000191   0.599268  -0.005508
    23  H   -0.000187   0.358809  -0.005522  -0.005508   0.598879
 Mulliken charges:
               1
     1  C   -0.078336
     2  H    0.144532
     3  N   -0.724302
     4  H    0.311484
     5  H    0.314438
     6  C    0.618985
     7  O   -0.464309
     8  O   -0.581735
     9  H    0.411545
    10  C   -0.329977
    11  H    0.175493
    12  H    0.167193
    13  C    0.156156
    14  C   -0.182356
    15  C   -0.192984
    16  C   -0.127216
    17  H    0.128966
    18  C   -0.131223
    19  H    0.123805
    20  C   -0.130322
    21  H    0.131207
    22  H    0.129400
    23  H    0.129556
 Sum of Mulliken charges =  -0.00000
 Mulliken charges with hydrogens summed into heavy atoms:
               1
     1  C    0.066197
     3  N   -0.098379
     6  C    0.618985
     7  O   -0.464309
     8  O   -0.170190
    10  C    0.012709
    13  C    0.156156
    14  C   -0.053390
    15  C   -0.069180
    16  C    0.003990
    18  C   -0.001823
    20  C   -0.000765
 Electronic spatial extent (au):  <R**2>=           2689.9483
 Charge=             -0.0000 electrons
 Dipole moment (field-independent basis, Debye):
    X=             -0.3733    Y=             -2.0751    Z=             -0.3214  Tot=              2.1327
 Quadrupole moment (field-independent basis, Debye-Ang):
   XX=            -60.2339   YY=            -68.0727   ZZ=            -73.5347
   XY=             -5.0009   XZ=             -1.0337   YZ=              2.9605
 Traceless Quadrupole moment (field-independent basis, Debye-Ang):
   XX=              7.0465   YY=             -0.7923   ZZ=             -6.2543
   XY=             -5.0009   XZ=             -1.0337   YZ=              2.9605
 Octapole moment (field-independent basis, Debye-Ang**2):
  XXX=             63.9201  YYY=             -9.6511  ZZZ=             -4.8383  XYY=             -4.1511
  XXY=            -16.8167  XXZ=              6.0247  XZZ=             11.6856  YZZ=             -2.6470
  YYZ=              7.0064  XYZ=             -2.1327
 Hexadecapole moment (field-independent basis, Debye-Ang**3):
 XXXX=          -2269.9950 YYYY=           -429.5299 ZZZZ=           -229.4595 XXXY=            -44.5179
 XXXZ=             -9.7665 YYYX=            -19.7723 YYYZ=             -0.4268 ZZZX=            -15.0781
 ZZZY=             -7.6620 XXYY=           -562.0010 XXZZ=           -527.3059 YYZZ=           -100.1087
 XXYZ=             35.6715 YYXZ=             12.5602 ZZXY=             -3.9636
 N-N= 6.643018550303D+02 E-N=-2.620476995345D+03  KE= 5.496213793909D+02
 Unable to Open any file for archive entry.
 1\1\GINC-CCC115\SP\RB3LYP TD-FC\6-31G(d)\C9H11N1O2\ROOT\21-Feb-2025\0\
 \# td=(nstat=3) b3lyp/6-31g(d)\\phe | No.7\\0,1\C,0,-1.427652,-0.33998
 8,0.035381\H,0,-1.287197,-1.032556,0.888925\N,0,-1.335394,-0.998659,-1
 .271662\H,0,-0.395518,-1.373431,-1.386644\H,0,-1.983769,-1.781564,-1.3
 13006\C,0,-2.840303,0.207679,0.217512\O,0,-3.138099,1.31017,0.616677\O
 ,0,-3.771925,-0.731639,-0.087178\H,0,-4.639749,-0.309168,0.055879\C,0,
 -0.400778,0.793068,0.139997\H,0,-0.594052,1.338558,1.072172\H,0,-0.594
 235,1.500282,-0.673421\C,0,1.05469,0.356474,0.096622\C,0,2.014253,1.22
 8711,-0.438299\C,0,1.500469,-0.862536,0.628205\C,0,3.368797,0.898024,-
 0.446701\H,0,1.690249,2.179108,-0.856538\C,0,2.855649,-1.201142,0.6169
 74\H,0,0.790031,-1.559924,1.065101\C,0,3.796081,-0.322334,0.080124\H,0
 ,4.090303,1.592438,-0.869435\H,0,3.174276,-2.153768,1.032522\H,0,4.850
 371,-0.585338,0.071203\\Version=ES64L-G16RevC.02\State=1-A\HF=-554.783
 8291\RMSD=5.048e-09\PG=C01 [X(C9H11N1O2)]\\@
 The archive entry for this job was punched.


 THE MOST INCOMPREHENSIBLE THING ABOUT THE WORLD
 IS THAT IT IS COMPREHENSIBLE. -- A. EINSTEIN
 Job cpu time:       0 days  0 hours 16 minutes 12.1 seconds.
 Elapsed time:       0 days  0 hours  2 minutes  8.1 seconds.
 File lengths (MBytes):  RWF=    272 Int=      0 D2E=      0 Chk=      8 Scr=      1
 Normal termination of Gaussian 16 at Fri Feb 21 15:16:24 2025.
