 Entering Gaussian System, Link 0=/apl/gaussian/16c02/g16/._.g16
 Initial command:
 /apl/gaussian/16c02/g16/l1.exe "/lwork/users/ux8/8287070.ccpbs1/gaussian/Gau-2005150.inp" -scrdir="/lwork/users/ux8/8287070.ccpbs1/gaussian/"
 Default CPUs for threads: 64,65,66,67,68,69,70,71
 Default is to use a total of   8 processors:
                                8 via shared-memory
                                1 via Linda
 Entering Link 1 = /apl/gaussian/16c02/g16/l1.exe PID=   2005151.
  
 Copyright (c) 1988-2021, Gaussian, Inc.  All Rights Reserved.
  
 This is part of the Gaussian(R) 16 program.  It is based on
 the Gaussian(R) 09 system (copyright 2009, Gaussian, Inc.),
 the Gaussian(R) 03 system (copyright 2003, Gaussian, Inc.),
 the Gaussian(R) 98 system (copyright 1998, Gaussian, Inc.),
 the Gaussian(R) 94 system (copyright 1995, Gaussian, Inc.),
 the Gaussian 92(TM) system (copyright 1992, Gaussian, Inc.),
 the Gaussian 90(TM) system (copyright 1990, Gaussian, Inc.),
 the Gaussian 88(TM) system (copyright 1988, Gaussian, Inc.),
 the Gaussian 86(TM) system (copyright 1986, Carnegie Mellon
 University), and the Gaussian 82(TM) system (copyright 1983,
 Carnegie Mellon University). Gaussian is a federally registered
 trademark of Gaussian, Inc.
  
 This software contains proprietary and confidential information,
 including trade secrets, belonging to Gaussian, Inc.
  
 This software is provided under written license and may be
 used, copied, transmitted, or stored only in accord with that
 written license.
  
 The following legend is applicable only to US Government
 contracts under FAR:
  
                    RESTRICTED RIGHTS LEGEND
  
 Use, reproduction and disclosure by the US Government is
 subject to restrictions as set forth in subparagraphs (a)
 and (c) of the Commercial Computer Software - Restricted
 Rights clause in FAR 52.227-19.
  
 Gaussian, Inc.
 340 Quinnipiac St., Bldg. 40, Wallingford CT 06492
  
  
 ---------------------------------------------------------------
 Warning -- This program may not be used in any manner that
 competes with the business of Gaussian, Inc. or will provide
 assistance to any competitor of Gaussian, Inc.  The licensee
 of this program is prohibited from giving any competitor of
 Gaussian, Inc. access to this program.  By using this program,
 the user acknowledges that Gaussian, Inc. is engaged in the
 business of creating and licensing software in the field of
 computational chemistry and represents and warrants to the
 licensee that it is not a competitor of Gaussian, Inc. and that
 it will not use this program in any manner prohibited above.
 ---------------------------------------------------------------
  

 Cite this work as:
 Gaussian 16, Revision C.02,
 M. J. Frisch, G. W. Trucks, H. B. Schlegel, G. E. Scuseria, 
 M. A. Robb, J. R. Cheeseman, G. Scalmani, V. Barone, 
 G. A. Petersson, H. Nakatsuji, X. Li, M. Caricato, A. V. Marenich, 
 J. Bloino, B. G. Janesko, R. Gomperts, B. Mennucci, H. P. Hratchian, 
 J. V. Ortiz, A. F. Izmaylov, J. L. Sonnenberg, D. Williams-Young, 
 F. Ding, F. Lipparini, F. Egidi, J. Goings, B. Peng, A. Petrone, 
 T. Henderson, D. Ranasinghe, V. G. Zakrzewski, J. Gao, N. Rega, 
 G. Zheng, W. Liang, M. Hada, M. Ehara, K. Toyota, R. Fukuda, 
 J. Hasegawa, M. Ishida, T. Nakajima, Y. Honda, O. Kitao, H. Nakai, 
 T. Vreven, K. Throssell, J. A. Montgomery, Jr., J. E. Peralta, 
 F. Ogliaro, M. J. Bearpark, J. J. Heyd, E. N. Brothers, K. N. Kudin, 
 V. N. Staroverov, T. A. Keith, R. Kobayashi, J. Normand, 
 K. Raghavachari, A. P. Rendell, J. C. Burant, S. S. Iyengar, 
 J. Tomasi, M. Cossi, J. M. Millam, M. Klene, C. Adamo, R. Cammi, 
 J. W. Ochterski, R. L. Martin, K. Morokuma, O. Farkas, 
 J. B. Foresman, and D. J. Fox, Gaussian, Inc., Wallingford CT, 2019.
 
 ******************************************
 Gaussian 16:  ES64L-G16RevC.02  7-Dec-2021
                21-Feb-2025 
 ******************************************
 %chk=phe.011.tddft.chk
 %mem=9600MB
 SetSPE:  set environment variable "OMP_PROC_BIND" = "true"
 SetSPE:  set environment variable "OMP_PLACES" = "{64},{65},{66},{67},{68},{69},{70},{71}"
 -----------------------------
 # td=(nstat=3) b3lyp/6-31g(d)
 -----------------------------
 1/38=1,172=1/1;
 2/12=2,17=6,18=5,40=1/2;
 3/5=1,6=6,7=1,11=9,25=1,30=1,74=-5/1,2,3,8;
 4//1;
 5/5=2,38=5/2;
 8/6=1,10=2,108=3/1;
 9/41=3,42=1,70=2/14;
 6/7=2,8=2,9=2,10=2/1;
 99/5=1,9=1/99;
 -----------
 phe | No.11
 -----------
 Symbolic Z-matrix:
 Charge =  0 Multiplicity = 1
 C                    -1.43377  -0.33492   0.02867 
 H                    -1.1586   -0.74661   1.01963 
 N                    -1.59125  -1.36024  -1.01211 
 H                    -0.69128  -1.79138  -1.20913 
 H                    -2.22178  -2.0923   -0.6937 
 C                    -2.78829   0.33713   0.25142 
 O                    -2.99621   1.52446   0.35529 
 O                    -3.77489  -0.58596   0.37603 
 H                    -4.59899  -0.08436   0.52151 
 C                    -0.37727   0.69681  -0.37775 
 H                    -0.58521   1.62617   0.1626 
 H                    -0.53437   0.92509  -1.44063 
 C                     1.07398   0.30548  -0.14296 
 C                     2.06214   1.29125  -0.29752 
 C                     1.48585  -0.97674   0.24222 
 C                     3.40966   1.00497  -0.09211 
 H                     1.76445   2.29786  -0.58398 
 C                     2.83695  -1.2693    0.45213 
 H                     0.75416  -1.76643   0.39081 
 C                     3.80478  -0.28157   0.28403 
 H                     4.15254   1.78824  -0.21934 
 H                     3.12745  -2.27341   0.75045 
 H                     4.85496  -0.50783   0.44713 
 
                          Input orientation:                          
 ---------------------------------------------------------------------
 Center     Atomic      Atomic             Coordinates (Angstroms)
 Number     Number       Type             X           Y           Z
 ---------------------------------------------------------------------
      1          6           0       -1.433767   -0.334915    0.028673
      2          1           0       -1.158597   -0.746614    1.019631
      3          7           0       -1.591247   -1.360243   -1.012111
      4          1           0       -0.691284   -1.791382   -1.209128
      5          1           0       -2.221778   -2.092299   -0.693696
      6          6           0       -2.788292    0.337128    0.251420
      7          8           0       -2.996208    1.524461    0.355291
      8          8           0       -3.774894   -0.585964    0.376032
      9          1           0       -4.598990   -0.084362    0.521513
     10          6           0       -0.377268    0.696805   -0.377751
     11          1           0       -0.585212    1.626167    0.162597
     12          1           0       -0.534374    0.925087   -1.440630
     13          6           0        1.073978    0.305478   -0.142961
     14          6           0        2.062142    1.291253   -0.297523
     15          6           0        1.485846   -0.976737    0.242216
     16          6           0        3.409663    1.004975   -0.092105
     17          1           0        1.764451    2.297858   -0.583976
     18          6           0        2.836950   -1.269300    0.452134
     19          1           0        0.754161   -1.766434    0.390814
     20          6           0        3.804780   -0.281569    0.284034
     21          1           0        4.152541    1.788243   -0.219339
     22          1           0        3.127454   -2.273410    0.750454
     23          1           0        4.854965   -0.507833    0.447134
 ---------------------------------------------------------------------
                    Distance matrix (angstroms):
                    1          2          3          4          5
     1  C    0.000000
     2  H    1.107796   0.000000
     3  N    1.469465   2.166034   0.000000
     4  H    2.050543   2.505452   1.017168   0.000000
     5  H    2.056982   2.424193   1.017282   1.642752   0.000000
     6  C    1.528397   2.102511   2.431151   3.325838   2.667639
     7  O    2.450547   2.995988   3.487868   4.330692   3.844616
     8  O    2.380034   2.699081   2.700882   3.670751   2.413614
     9  H    3.213146   3.538786   3.609209   4.602087   3.340611
    10  C    1.531606   2.155600   2.471357   2.642133   3.358741
    11  H    2.140987   2.587154   3.363137   3.684090   4.151936
    12  H    2.134330   3.039264   2.554083   2.730827   3.536928
    13  C    2.593906   2.728170   3.260901   2.941034   4.112743
    14  C    3.869393   4.032488   4.570374   4.232613   5.473331
    15  C    2.996944   2.765937   3.344983   2.740427   3.983326
    16  C    5.026799   5.017272   5.608009   5.087742   6.455087
    17  H    4.187533   4.514928   4.982541   4.810752   5.930897
    18  C    4.392200   4.069355   4.664892   3.934564   5.251760
    19  H    2.639587   2.257008   2.762993   2.156327   3.184111
    20  C    5.245039   5.039095   5.653374   4.972289   6.368210
    21  H    5.981316   6.014045   6.597920   6.103772   7.477671
    22  H    5.008340   4.557828   5.119243   4.319152   5.543704
    23  H    6.305011   6.045469   6.664056   5.928877   7.341139
                    6          7          8          9         10
     6  C    0.000000
     7  O    1.209867   0.000000
     8  O    1.356838   2.249595   0.000000
     9  H    1.878625   2.277027   0.975655   0.000000
    10  C    2.517590   2.842747   3.709117   4.386552   0.000000
    11  H    2.554031   2.420822   3.887563   4.377801   1.094957
    12  H    2.879041   3.105674   4.010549   4.624943   1.098411
    13  C    3.882482   4.277919   4.957377   5.725039   1.521308
    14  C    4.973771   5.105630   6.168355   6.850826   2.512076
    15  C    4.471530   5.133964   5.276931   6.156263   2.579980
    16  C    6.243290   6.442454   7.373473   8.105659   3.810172
    17  H    5.026909   4.913679   6.318417   6.884073   2.681951
    18  C    5.853567   6.468401   6.647497   7.530079   3.858170
    19  H    4.122302   4.989641   4.680392   5.612724   2.817511
    20  C    6.622118   7.037063   7.586342   8.409437   4.345653
    21  H    7.106512   7.176656   8.296719   8.980245   4.662135
    22  H    6.485368   7.216593   7.115481   8.033821   4.730550
    23  H    7.692310   8.110461   8.630506   9.463727   5.432113
                   11         12         13         14         15
    11  H    0.000000
    12  H    1.750553   0.000000
    13  C    2.142544   2.157465   0.000000
    14  C    2.707833   2.860536   1.404318   0.000000
    15  C    3.327271   3.245026   1.400740   2.401502   0.000000
    16  C    4.050899   4.168972   2.438710   1.392826   2.782090
    17  H    2.555280   2.811219   2.154257   1.088085   3.388685
    18  C    4.492077   4.445640   2.437649   2.778263   1.398263
    19  H    3.654551   3.501256   2.163335   3.396185   1.086768
    20  C    4.788135   4.822732   2.825638   2.418422   2.421252
    21  H    4.755886   4.919732   3.417891   2.150088   3.869032
    22  H    5.416287   5.332937   3.415497   3.865225   2.152799
    23  H    5.850679   5.887435   3.912231   3.404568   3.407760
                   16         17         18         19         20
    16  C    0.000000
    17  H    2.149466   0.000000
    18  C    2.407597   3.866315   0.000000
    19  H    3.868541   4.299927   2.142175   0.000000
    20  C    1.397424   3.401445   1.393042   3.394481   0.000000
    21  H    1.086998   2.468935   3.395618   4.955502   2.158343
    22  H    3.396668   4.953279   1.087025   2.453342   2.154936
    23  H    2.160617   4.299577   2.156906   4.289970   1.086594
                   21         22         23
    21  H    0.000000
    22  H    4.299805   0.000000
    23  H    2.491897   2.488686   0.000000
 Stoichiometry    C9H11NO2
 Framework group  C1[X(C9H11NO2)]
 Deg. of freedom    63
 Full point group                 C1      NOp   1
 Largest Abelian subgroup         C1      NOp   1
 Largest concise Abelian subgroup C1      NOp   1
                         Standard orientation:                         
 ---------------------------------------------------------------------
 Center     Atomic      Atomic             Coordinates (Angstroms)
 Number     Number       Type             X           Y           Z
 ---------------------------------------------------------------------
      1          6           0        1.433767   -0.334915   -0.028673
      2          1           0        1.158597   -0.746614   -1.019631
      3          7           0        1.591247   -1.360243    1.012111
      4          1           0        0.691284   -1.791382    1.209128
      5          1           0        2.221778   -2.092299    0.693696
      6          6           0        2.788292    0.337128   -0.251420
      7          8           0        2.996208    1.524461   -0.355291
      8          8           0        3.774894   -0.585964   -0.376032
      9          1           0        4.598990   -0.084362   -0.521513
     10          6           0        0.377268    0.696805    0.377751
     11          1           0        0.585212    1.626167   -0.162597
     12          1           0        0.534374    0.925087    1.440630
     13          6           0       -1.073978    0.305478    0.142961
     14          6           0       -2.062142    1.291253    0.297523
     15          6           0       -1.485846   -0.976737   -0.242216
     16          6           0       -3.409663    1.004975    0.092105
     17          1           0       -1.764451    2.297858    0.583976
     18          6           0       -2.836950   -1.269300   -0.452134
     19          1           0       -0.754161   -1.766434   -0.390814
     20          6           0       -3.804780   -0.281569   -0.284034
     21          1           0       -4.152541    1.788243    0.219339
     22          1           0       -3.127454   -2.273410   -0.750454
     23          1           0       -4.854965   -0.507833   -0.447134
 ---------------------------------------------------------------------
 Rotational constants (GHZ):           2.4742589           0.4415817           0.3941698
 Standard basis: 6-31G(d) (6D, 7F)
 There are   202 symmetry adapted cartesian basis functions of A   symmetry.
 There are   202 symmetry adapted basis functions of A   symmetry.
   202 basis functions,   380 primitive gaussians,   202 cartesian basis functions
    44 alpha electrons       44 beta electrons
       nuclear repulsion energy       663.0522025510 Hartrees.
 NAtoms=   23 NActive=   23 NUniq=   23 SFac= 1.00D+00 NAtFMM=   60 NAOKFM=F Big=F
 Integral buffers will be    131072 words long.
 Regular integral format.
 Two-electron integral symmetry is turned on.
 One-electron integrals computed using PRISM.
 NBasis=   202 RedAO= T EigKep=  4.60D-04  NBF=   202
 NBsUse=   202 1.00D-06 EigRej= -1.00D+00 NBFU=   202
 ExpMin= 1.61D-01 ExpMax= 5.48D+03 ExpMxC= 8.25D+02 IAcc=3 IRadAn=         5 AccDes= 0.00D+00
 Harris functional with IExCor=  402 and IRadAn=       5 diagonalized for initial guess.
 HarFok:  IExCor=  402 AccDes= 0.00D+00 IRadAn=         5 IDoV= 1 UseB2=F ITyADJ=14
 ICtDFT=  3500011 ScaDFX=  1.000000  1.000000  1.000000  1.000000
 FoFCou: FMM=F IPFlag=           0 FMFlag=      100000 FMFlg1=           0
         NFxFlg=           0 DoJE=T BraDBF=F KetDBF=T FulRan=T
         wScrn=  0.000000 ICntrl=       500 IOpCl=  0 I1Cent=   200000004 NGrid=           0
         NMat0=    1 NMatS0=      1 NMatT0=    0 NMatD0=    1 NMtDS0=    0 NMtDT0=    0
 Petite list used in FoFCou.
 Requested convergence on RMS density matrix=1.00D-08 within 128 cycles.
 Requested convergence on MAX density matrix=1.00D-06.
 Requested convergence on             energy=1.00D-06.
 No special actions if energy rises.
 Integral accuracy reduced to 1.0D-05 until final iterations.
 Initial convergence to 1.0D-05 achieved.  Increase integral accuracy.
 SCF Done:  E(RB3LYP) =  -554.781896568     A.U. after   14 cycles
            NFock= 14  Conv=0.42D-08     -V/T= 2.0094
 DoSCS=F DFT=T ScalE2(SS,OS)=  1.000000  1.000000
 ExpMin= 1.61D-01 ExpMax= 5.48D+03 ExpMxC= 8.25D+02 IAcc=3 IRadAn=         5 AccDes= 0.00D+00
 HarFok:  IExCor=  205 AccDes= 0.00D+00 IRadAn=         5 IDoV=-2 UseB2=F ITyADJ=14
 ICtDFT= 12500011 ScaDFX=  1.000000  1.000000  1.000000  1.000000
 Range of M.O.s used for correlation:    13   202
 NBasis=   202 NAE=    44 NBE=    44 NFC=    12 NFV=     0
 NROrb=    190 NOA=    32 NOB=    32 NVA=   158 NVB=   158
 Keep R1, R2, and R3 ints in memory in canonical form, NReq=656629584.
 Orbital symmetries:
       Occupied  (A) (A) (A) (A) (A) (A) (A) (A) (A) (A) (A) (A)
                 (A) (A) (A) (A) (A) (A) (A) (A) (A) (A) (A) (A)
                 (A) (A) (A) (A) (A) (A) (A) (A) (A) (A) (A) (A)
                 (A) (A) (A) (A) (A) (A) (A) (A)
       Virtual   (A) (A) (A) (A) (A) (A) (A) (A) (A) (A) (A) (A)
                 (A) (A) (A) (A) (A) (A) (A) (A) (A) (A) (A) (A)
                 (A) (A) (A) (A) (A) (A) (A) (A) (A) (A) (A) (A)
                 (A) (A) (A) (A) (A) (A) (A) (A) (A) (A) (A) (A)
                 (A) (A) (A) (A) (A) (A) (A) (A) (A) (A) (A) (A)
                 (A) (A) (A) (A) (A) (A) (A) (A) (A) (A) (A) (A)
                 (A) (A) (A) (A) (A) (A) (A) (A) (A) (A) (A) (A)
                 (A) (A) (A) (A) (A) (A) (A) (A) (A) (A) (A) (A)
                 (A) (A) (A) (A) (A) (A) (A) (A) (A) (A) (A) (A)
                 (A) (A) (A) (A) (A) (A) (A) (A) (A) (A) (A) (A)
                 (A) (A) (A) (A) (A) (A) (A) (A) (A) (A) (A) (A)
                 (A) (A) (A) (A) (A) (A) (A) (A) (A) (A) (A) (A)
                 (A) (A) (A) (A) (A) (A) (A) (A) (A) (A) (A) (A)
                 (A) (A)
    12 initial guesses have been made.
 Convergence on wavefunction:    0.001000000000000
 Iteration     1 Dimension    12 NMult     0 NNew     12
 CISAX will form    12 AO SS matrices at one time.
 New state      2 was old state      5
 Iteration     2 Dimension    18 NMult    12 NNew      6
 Iteration     3 Dimension    24 NMult    18 NNew      6
 Iteration     4 Dimension    30 NMult    24 NNew      6
 Iteration     5 Dimension    36 NMult    30 NNew      6
 Iteration     6 Dimension    38 NMult    36 NNew      2
 Iteration     7 Dimension    40 NMult    38 NNew      2
 Iteration     8 Dimension    42 NMult    40 NNew      2
 ***********************************************************************
 Excited states from <AA,BB:AA,BB> singles matrix:
 ***********************************************************************
 
 Ground to excited state transition densities written to RWF  633
 Ground to excited state transition electric dipole moments (Au):
       state          X           Y           Z        Dip. S.      Osc.
         1         0.1387     -0.1020     -0.0020      0.0297      0.0039
         2         0.0911      0.0462      0.0664      0.0149      0.0020
         3         0.1620     -0.0395      0.0508      0.0304      0.0044
 Ground to excited state transition velocity dipole moments (Au):
       state          X           Y           Z        Dip. S.      Osc.
         1        -0.0279      0.0191     -0.0011      0.0011      0.0038
         2        -0.0132     -0.0125     -0.0161      0.0006      0.0020
         3        -0.0306      0.0026     -0.0186      0.0013      0.0040
 Ground to excited state transition magnetic dipole moments (Au):
       state          X           Y           Z
         1        -0.0090      0.0188     -0.2752
         2        -0.2556     -0.3146      0.1937
         3         0.0993     -0.0194     -0.2757
 Ground to excited state transition velocity quadrupole moments (Au):
       state          XX          YY          ZZ          XY          XZ          YZ
         1         0.0936     -0.0196      0.0083     -0.1369     -0.0327      0.0160
         2        -0.0595     -0.0651      0.0996     -0.0484      0.0194      0.0377
         3        -0.0192      0.0888     -0.0303     -0.0205     -0.0710      0.0528
 <0|del|b> * <b|rxdel|0> + <0|del|b> * <b|delr+rdel|0>
 Rotatory Strengths (R) in cgs (10**-40 erg-esu-cm/Gauss)
       state          XX          YY          ZZ    R(velocity)    E-M Angle
         1         2.5377     -0.0878      0.7681      1.0727       84.45
         2         3.2463     -1.8159     13.2650      4.8985       67.43
         3         9.2319      0.1482     -2.7146      2.2218       78.85
 1/2[<0|r|b>*<b|rxdel|0> + (<0|rxdel|b>*<b|r|0>)*]
 Rotatory Strengths (R) in cgs (10**-40 erg-esu-cm/Gauss)
       state          XX          YY          ZZ     R(length)
         1         0.8824      1.3592     -0.3815      0.6201
         2        16.4724     10.2868     -9.0929      5.8887
         3       -11.3792     -0.5413      9.8955     -0.6750
  1/2[<0|del|b>*<b|r|0> + (<0|r|b>*<b|del|0>)*] (Au)
       state          X           Y           Z        Dip. S.   Osc.(frdel)
         1        -0.0039     -0.0020      0.0000      0.0058      0.0039
         2        -0.0012     -0.0006     -0.0011      0.0028      0.0019
         3        -0.0050     -0.0001     -0.0009      0.0060      0.0040

 Excitation energies and oscillator strengths:
 
 Excited State   1:      Singlet-A      5.3947 eV  229.83 nm  f=0.0039  <S**2>=0.000
      42 -> 45         0.23969
      42 -> 46         0.23540
      42 -> 47        -0.13375
      43 -> 46         0.35078
      44 -> 45         0.46958
      44 -> 46        -0.13977
 This state for optimization and/or second-order correction.
 Total Energy, E(TD-HF/TD-DFT) =  -554.583646220    
 Copying the excited state density for this state as the 1-particle RhoCI density.
 
 Excited State   2:      Singlet-A      5.4836 eV  226.10 nm  f=0.0020  <S**2>=0.000
      41 -> 47        -0.23285
      42 -> 45        -0.11566
      42 -> 46        -0.12766
      42 -> 47        -0.15456
      43 -> 45         0.14549
      43 -> 47         0.39119
      44 -> 46         0.20370
      44 -> 47         0.39124
 
 Excited State   3:      Singlet-A      5.8824 eV  210.77 nm  f=0.0044  <S**2>=0.000
      42 -> 45        -0.17156
      43 -> 45         0.46086
      43 -> 46        -0.26491
      44 -> 45         0.22347
      44 -> 46        -0.36099
 SavETr:  write IOETrn=   770 NScale= 10 NData=  16 NLR=1 NState=    3 LETran=      64.

 **********************************************************************

            Population analysis using the SCF Density.

 **********************************************************************

 Orbital symmetries:
       Occupied  (A) (A) (A) (A) (A) (A) (A) (A) (A) (A) (A) (A)
                 (A) (A) (A) (A) (A) (A) (A) (A) (A) (A) (A) (A)
                 (A) (A) (A) (A) (A) (A) (A) (A) (A) (A) (A) (A)
                 (A) (A) (A) (A) (A) (A) (A) (A)
       Virtual   (A) (A) (A) (A) (A) (A) (A) (A) (A) (A) (A) (A)
                 (A) (A) (A) (A) (A) (A) (A) (A) (A) (A) (A) (A)
                 (A) (A) (A) (A) (A) (A) (A) (A) (A) (A) (A) (A)
                 (A) (A) (A) (A) (A) (A) (A) (A) (A) (A) (A) (A)
                 (A) (A) (A) (A) (A) (A) (A) (A) (A) (A) (A) (A)
                 (A) (A) (A) (A) (A) (A) (A) (A) (A) (A) (A) (A)
                 (A) (A) (A) (A) (A) (A) (A) (A) (A) (A) (A) (A)
                 (A) (A) (A) (A) (A) (A) (A) (A) (A) (A) (A) (A)
                 (A) (A) (A) (A) (A) (A) (A) (A) (A) (A) (A) (A)
                 (A) (A) (A) (A) (A) (A) (A) (A) (A) (A) (A) (A)
                 (A) (A) (A) (A) (A) (A) (A) (A) (A) (A) (A) (A)
                 (A) (A) (A) (A) (A) (A) (A) (A) (A) (A) (A) (A)
                 (A) (A) (A) (A) (A) (A) (A) (A) (A) (A) (A) (A)
                 (A) (A)
 The electronic state is 1-A.
 Alpha  occ. eigenvalues --  -19.20123 -19.14440 -14.32220 -10.32279 -10.23510
 Alpha  occ. eigenvalues --  -10.19999 -10.19100 -10.19027 -10.18998 -10.18935
 Alpha  occ. eigenvalues --  -10.18821 -10.18683  -1.10971  -1.01916  -0.89750
 Alpha  occ. eigenvalues --   -0.85308  -0.77791  -0.74348  -0.72820  -0.67213
 Alpha  occ. eigenvalues --   -0.61049  -0.59642  -0.56736  -0.51892  -0.50618
 Alpha  occ. eigenvalues --   -0.49062  -0.48712  -0.46476  -0.45166  -0.44518
 Alpha  occ. eigenvalues --   -0.42768  -0.41895  -0.41188  -0.39146  -0.38839
 Alpha  occ. eigenvalues --   -0.36892  -0.35071  -0.33865  -0.33573  -0.32320
 Alpha  occ. eigenvalues --   -0.28376  -0.25184  -0.24376  -0.23855
 Alpha virt. eigenvalues --   -0.00344   0.00072   0.00676   0.06637   0.09035
 Alpha virt. eigenvalues --    0.10655   0.12807   0.13138   0.14024   0.15620
 Alpha virt. eigenvalues --    0.15834   0.16704   0.18318   0.19357   0.20345
 Alpha virt. eigenvalues --    0.22341   0.23544   0.25676   0.26184   0.29719
 Alpha virt. eigenvalues --    0.31290   0.31830   0.34123   0.36336   0.39836
 Alpha virt. eigenvalues --    0.48030   0.51258   0.52386   0.53745   0.55433
 Alpha virt. eigenvalues --    0.56043   0.56573   0.58096   0.59336   0.59564
 Alpha virt. eigenvalues --    0.60116   0.61403   0.61807   0.62556   0.63786
 Alpha virt. eigenvalues --    0.63966   0.66348   0.67272   0.69013   0.70001
 Alpha virt. eigenvalues --    0.72002   0.72993   0.76564   0.77123   0.78313
 Alpha virt. eigenvalues --    0.80189   0.83378   0.83826   0.84100   0.85638
 Alpha virt. eigenvalues --    0.86558   0.88446   0.89469   0.90436   0.91590
 Alpha virt. eigenvalues --    0.92263   0.93532   0.94415   0.95533   0.97133
 Alpha virt. eigenvalues --    0.98500   1.01612   1.02312   1.04655   1.06648
 Alpha virt. eigenvalues --    1.07799   1.10349   1.12662   1.13035   1.16012
 Alpha virt. eigenvalues --    1.18347   1.20527   1.23375   1.26521   1.28106
 Alpha virt. eigenvalues --    1.34588   1.40787   1.43297   1.43816   1.45491
 Alpha virt. eigenvalues --    1.48309   1.49228   1.49436   1.51619   1.55373
 Alpha virt. eigenvalues --    1.58569   1.64223   1.66762   1.69647   1.74684
 Alpha virt. eigenvalues --    1.77047   1.78653   1.80029   1.82055   1.82365
 Alpha virt. eigenvalues --    1.84445   1.86604   1.89779   1.91201   1.92146
 Alpha virt. eigenvalues --    1.94082   1.95125   1.97927   1.99399   2.04167
 Alpha virt. eigenvalues --    2.05541   2.06603   2.11130   2.12856   2.14384
 Alpha virt. eigenvalues --    2.14811   2.15751   2.19890   2.21375   2.26495
 Alpha virt. eigenvalues --    2.27374   2.31097   2.34212   2.36660   2.37801
 Alpha virt. eigenvalues --    2.42614   2.44880   2.52814   2.54513   2.56470
 Alpha virt. eigenvalues --    2.58612   2.60188   2.63109   2.65268   2.67917
 Alpha virt. eigenvalues --    2.72345   2.75171   2.75935   2.78487   2.79877
 Alpha virt. eigenvalues --    2.87517   2.91228   2.98715   3.05872   3.13414
 Alpha virt. eigenvalues --    3.40973   3.79884   3.83986   4.08666   4.11400
 Alpha virt. eigenvalues --    4.12304   4.13538   4.27257   4.33194   4.34154
 Alpha virt. eigenvalues --    4.43614   4.59642   4.71322
          Condensed to atoms (all electrons):
               1          2          3          4          5          6
     1  C    5.115680   0.347753   0.285395  -0.035680  -0.024503   0.299590
     2  H    0.347753   0.643949  -0.048242  -0.004203  -0.004103  -0.037934
     3  N    0.285395  -0.048242   6.971878   0.308980   0.301815  -0.040158
     4  H   -0.035680  -0.004203   0.308980   0.437915  -0.029339   0.004960
     5  H   -0.024503  -0.004103   0.301815  -0.029339   0.433902  -0.009409
     6  C    0.299590  -0.037934  -0.040158   0.004960  -0.009409   4.349444
     7  O   -0.080747   0.001340   0.001042  -0.000088   0.000078   0.576469
     8  O   -0.094573  -0.000115  -0.001020   0.000110   0.010038   0.282494
     9  H    0.011227  -0.000564  -0.000445   0.000027  -0.000267  -0.007567
    10  C    0.339542  -0.055097  -0.054928  -0.005068   0.005863  -0.027919
    11  H   -0.038270   0.001686   0.004565   0.000017  -0.000244  -0.004155
    12  H   -0.033803   0.007017   0.004039  -0.001253  -0.000006  -0.004251
    13  C   -0.028751  -0.002065  -0.003515   0.001746   0.000016   0.003724
    14  C    0.002911   0.000195  -0.000064  -0.000127   0.000007  -0.000151
    15  C   -0.002060   0.004302  -0.004730   0.005468  -0.000187   0.000448
    16  C   -0.000134  -0.000001   0.000001  -0.000007  -0.000000   0.000001
    17  H    0.000152   0.000007  -0.000002  -0.000001   0.000000  -0.000007
    18  C   -0.000016  -0.000302   0.000113   0.000021   0.000001  -0.000002
    19  H    0.006330  -0.003387   0.004271   0.005512   0.000900   0.000099
    20  C    0.000005  -0.000016   0.000000   0.000001   0.000000   0.000000
    21  H    0.000002   0.000000  -0.000000  -0.000000   0.000000  -0.000000
    22  H    0.000005   0.000012  -0.000002  -0.000005  -0.000000  -0.000000
    23  H   -0.000000  -0.000000   0.000000  -0.000000  -0.000000  -0.000000
               7          8          9         10         11         12
     1  C   -0.080747  -0.094573   0.011227   0.339542  -0.038270  -0.033803
     2  H    0.001340  -0.000115  -0.000564  -0.055097   0.001686   0.007017
     3  N    0.001042  -0.001020  -0.000445  -0.054928   0.004565   0.004039
     4  H   -0.000088   0.000110   0.000027  -0.005068   0.000017  -0.001253
     5  H    0.000078   0.010038  -0.000267   0.005863  -0.000244  -0.000006
     6  C    0.576469   0.282494  -0.007567  -0.027919  -0.004155  -0.004251
     7  O    8.024858  -0.084634   0.011462  -0.001756   0.013398   0.001317
     8  O   -0.084634   8.246904   0.217585   0.002321   0.000354  -0.000061
     9  H    0.011462   0.217585   0.356583  -0.000255  -0.000042  -0.000007
    10  C   -0.001756   0.002321  -0.000255   5.251118   0.356205   0.345102
    11  H    0.013398   0.000354  -0.000042   0.356205   0.543355  -0.026764
    12  H    0.001317  -0.000061  -0.000007   0.345102  -0.026764   0.561284
    13  C    0.000663  -0.000016   0.000001   0.331466  -0.032184  -0.026464
    14  C   -0.000010   0.000000  -0.000000  -0.055142  -0.005722  -0.003496
    15  C    0.000003  -0.000002   0.000000  -0.070012   0.002238  -0.000057
    16  C   -0.000000  -0.000000   0.000000   0.006050   0.000165  -0.000095
    17  H    0.000000  -0.000000  -0.000000  -0.008817   0.003072   0.001665
    18  C   -0.000000   0.000000   0.000000   0.007082  -0.000116  -0.000166
    19  H   -0.000001   0.000002   0.000000  -0.012466  -0.000117  -0.000027
    20  C    0.000000  -0.000000   0.000000   0.000301   0.000011   0.000031
    21  H    0.000000   0.000000  -0.000000  -0.000178  -0.000004   0.000000
    22  H   -0.000000   0.000000  -0.000000  -0.000178   0.000003   0.000003
    23  H    0.000000  -0.000000  -0.000000   0.000008  -0.000000  -0.000000
              13         14         15         16         17         18
     1  C   -0.028751   0.002911  -0.002060  -0.000134   0.000152  -0.000016
     2  H   -0.002065   0.000195   0.004302  -0.000001   0.000007  -0.000302
     3  N   -0.003515  -0.000064  -0.004730   0.000001  -0.000002   0.000113
     4  H    0.001746  -0.000127   0.005468  -0.000007  -0.000001   0.000021
     5  H    0.000016   0.000007  -0.000187  -0.000000   0.000000   0.000001
     6  C    0.003724  -0.000151   0.000448   0.000001  -0.000007  -0.000002
     7  O    0.000663  -0.000010   0.000003  -0.000000   0.000000  -0.000000
     8  O   -0.000016   0.000000  -0.000002  -0.000000  -0.000000   0.000000
     9  H    0.000001  -0.000000   0.000000   0.000000  -0.000000   0.000000
    10  C    0.331466  -0.055142  -0.070012   0.006050  -0.008817   0.007082
    11  H   -0.032184  -0.005722   0.002238   0.000165   0.003072  -0.000116
    12  H   -0.026464  -0.003496  -0.000057  -0.000095   0.001665  -0.000166
    13  C    4.671923   0.529956   0.549717  -0.013983  -0.049506  -0.018220
    14  C    0.529956   4.970095  -0.035699   0.525665   0.358524  -0.046518
    15  C    0.549717  -0.035699   4.994710  -0.048319   0.006306   0.514391
    16  C   -0.013983   0.525665  -0.048319   4.866585  -0.045931  -0.026045
    17  H   -0.049506   0.358524   0.006306  -0.045931   0.607516   0.000324
    18  C   -0.018220  -0.046518   0.514391  -0.026045   0.000324   4.874988
    19  H   -0.050273   0.006317   0.342390   0.000322  -0.000175  -0.044008
    20  C   -0.035937  -0.034028  -0.034354   0.544812   0.004989   0.555623
    21  H    0.003736  -0.039586   0.000832   0.356928  -0.005807   0.004625
    22  H    0.003709   0.000873  -0.039013   0.004564   0.000018   0.355567
    23  H    0.000743   0.004569   0.004747  -0.042968  -0.000180  -0.043039
              19         20         21         22         23
     1  C    0.006330   0.000005   0.000002   0.000005  -0.000000
     2  H   -0.003387  -0.000016   0.000000   0.000012  -0.000000
     3  N    0.004271   0.000000  -0.000000  -0.000002   0.000000
     4  H    0.005512   0.000001  -0.000000  -0.000005  -0.000000
     5  H    0.000900   0.000000   0.000000  -0.000000  -0.000000
     6  C    0.000099   0.000000  -0.000000  -0.000000  -0.000000
     7  O   -0.000001   0.000000   0.000000  -0.000000   0.000000
     8  O    0.000002  -0.000000   0.000000   0.000000  -0.000000
     9  H    0.000000   0.000000  -0.000000  -0.000000  -0.000000
    10  C   -0.012466   0.000301  -0.000178  -0.000178   0.000008
    11  H   -0.000117   0.000011  -0.000004   0.000003  -0.000000
    12  H   -0.000027   0.000031   0.000000   0.000003  -0.000000
    13  C   -0.050273  -0.035937   0.003736   0.003709   0.000743
    14  C    0.006317  -0.034028  -0.039586   0.000873   0.004569
    15  C    0.342390  -0.034354   0.000832  -0.039013   0.004747
    16  C    0.000322   0.544812   0.356928   0.004564  -0.042968
    17  H   -0.000175   0.004989  -0.005807   0.000018  -0.000180
    18  C   -0.044008   0.555623   0.004625   0.355567  -0.043039
    19  H    0.629924   0.005000   0.000018  -0.005990  -0.000187
    20  C    0.005000   4.850809  -0.043516  -0.042786   0.358891
    21  H    0.000018  -0.043516   0.597867  -0.000193  -0.005463
    22  H   -0.005990  -0.042786  -0.000193   0.600424  -0.005567
    23  H   -0.000187   0.358891  -0.005463  -0.005567   0.599500
 Mulliken charges:
               1
     1  C   -0.070053
     2  H    0.149769
     3  N   -0.728989
     4  H    0.311015
     5  H    0.315438
     6  C    0.614324
     7  O   -0.463394
     8  O   -0.579387
     9  H    0.412261
    10  C   -0.353242
    11  H    0.182550
    12  H    0.175993
    13  C    0.163513
    14  C   -0.178570
    15  C   -0.191121
    16  C   -0.127608
    17  H    0.127852
    18  C   -0.134302
    19  H    0.115547
    20  C   -0.129837
    21  H    0.130737
    22  H    0.128556
    23  H    0.128946
 Sum of Mulliken charges =  -0.00000
 Mulliken charges with hydrogens summed into heavy atoms:
               1
     1  C    0.079716
     3  N   -0.102536
     6  C    0.614324
     7  O   -0.463394
     8  O   -0.167126
    10  C    0.005301
    13  C    0.163513
    14  C   -0.050717
    15  C   -0.075574
    16  C    0.003130
    18  C   -0.005746
    20  C   -0.000890
 Electronic spatial extent (au):  <R**2>=           2708.9021
 Charge=             -0.0000 electrons
 Dipole moment (field-independent basis, Debye):
    X=             -0.3247    Y=             -1.8482    Z=             -0.8013  Tot=              2.0404
 Quadrupole moment (field-independent basis, Debye-Ang):
   XX=            -60.6687   YY=            -67.7615   ZZ=            -73.7389
   XY=             -4.5214   XZ=             -2.6133   YZ=              2.3235
 Traceless Quadrupole moment (field-independent basis, Debye-Ang):
   XX=              6.7210   YY=             -0.3718   ZZ=             -6.3492
   XY=             -4.5214   XZ=             -2.6133   YZ=              2.3235
 Octapole moment (field-independent basis, Debye-Ang**2):
  XXX=             63.4691  YYY=            -15.1859  ZZZ=             -4.9864  XYY=             -7.2063
  XXY=             -8.2268  XXZ=            -14.8715  XZZ=             15.1320  YZZ=              1.9098
  YYZ=              3.7873  XYZ=             -1.0758
 Hexadecapole moment (field-independent basis, Debye-Ang**3):
 XXXX=          -2283.0924 YYYY=           -488.3779 ZZZZ=           -170.2059 XXXY=            -23.8461
 XXXZ=            -41.2420 YYYX=            -35.7713 YYYZ=             -1.5513 ZZZX=            -23.4834
 ZZZY=             -0.3039 XXYY=           -570.2246 XXZZ=           -519.9073 YYZZ=           -114.3199
 XXYZ=             19.1129 YYXZ=              7.0546 ZZXY=              8.8068
 N-N= 6.630522025510D+02 E-N=-2.617942141597D+03  KE= 5.496153966397D+02
 Unable to Open any file for archive entry.
 1\1\GINC-CCC151\SP\RB3LYP TD-FC\6-31G(d)\C9H11N1O2\ROOT\21-Feb-2025\0\
 \# td=(nstat=3) b3lyp/6-31g(d)\\phe | No.11\\0,1\C,0,-1.433767,-0.3349
 15,0.028673\H,0,-1.158597,-0.746614,1.019631\N,0,-1.591247,-1.360243,-
 1.012111\H,0,-0.691284,-1.791382,-1.209128\H,0,-2.221778,-2.092299,-0.
 693696\C,0,-2.788292,0.337128,0.25142\O,0,-2.996208,1.524461,0.355291\
 O,0,-3.774894,-0.585964,0.376032\H,0,-4.59899,-0.084362,0.521513\C,0,-
 0.377268,0.696805,-0.377751\H,0,-0.585212,1.626167,0.162597\H,0,-0.534
 374,0.925087,-1.44063\C,0,1.073978,0.305478,-0.142961\C,0,2.062142,1.2
 91253,-0.297523\C,0,1.485846,-0.976737,0.242216\C,0,3.409663,1.004975,
 -0.092105\H,0,1.764451,2.297858,-0.583976\C,0,2.83695,-1.2693,0.452134
 \H,0,0.754161,-1.766434,0.390814\C,0,3.80478,-0.281569,0.284034\H,0,4.
 152541,1.788243,-0.219339\H,0,3.127454,-2.27341,0.750454\H,0,4.854965,
 -0.507833,0.447134\\Version=ES64L-G16RevC.02\State=1-A\HF=-554.7818966
 \RMSD=4.234e-09\PG=C01 [X(C9H11N1O2)]\\@
 The archive entry for this job was punched.


 ... I FELL INTO A REVERIE ... THE ATOMS WERE GAMBOLING BEFORE MY EYES
 ... I SAW HOW TWO SMALL ONES UNITED TO FORM A PAIR;
 HOW THE LARGER ONES SEIZED TWO OF THE SMALLER ONES;
 HOW STILL LARGER ONES KEPT HOLD OF THREE OR FOUR
 SMALLER ONES ... I SAW HOW THE LARGER ONES FORMED A CHAIN ...
 THIS WAS THE ORIGIN OF THE STRUCTURE THEORY.

                                   -- C.F.KEKULE VON STRADONITZ
 Job cpu time:       0 days  0 hours 18 minutes 27.9 seconds.
 Elapsed time:       0 days  0 hours  2 minutes 25.5 seconds.
 File lengths (MBytes):  RWF=    272 Int=      0 D2E=      0 Chk=      8 Scr=      1
 Normal termination of Gaussian 16 at Fri Feb 21 15:16:43 2025.
