 Entering Gaussian System, Link 0=/apl/gaussian/16c02/g16/._.g16
 Initial command:
 /apl/gaussian/16c02/g16/l1.exe "/lwork/users/ux8/8286873.ccpbs1/gaussian/Gau-790781.inp" -scrdir="/lwork/users/ux8/8286873.ccpbs1/gaussian/"
 Default CPUs for threads: 16,17,18,19,20,21,22,23
 Default is to use a total of   8 processors:
                                8 via shared-memory
                                1 via Linda
 Entering Link 1 = /apl/gaussian/16c02/g16/l1.exe PID=    790916.
  
 Copyright (c) 1988-2021, Gaussian, Inc.  All Rights Reserved.
  
 This is part of the Gaussian(R) 16 program.  It is based on
 the Gaussian(R) 09 system (copyright 2009, Gaussian, Inc.),
 the Gaussian(R) 03 system (copyright 2003, Gaussian, Inc.),
 the Gaussian(R) 98 system (copyright 1998, Gaussian, Inc.),
 the Gaussian(R) 94 system (copyright 1995, Gaussian, Inc.),
 the Gaussian 92(TM) system (copyright 1992, Gaussian, Inc.),
 the Gaussian 90(TM) system (copyright 1990, Gaussian, Inc.),
 the Gaussian 88(TM) system (copyright 1988, Gaussian, Inc.),
 the Gaussian 86(TM) system (copyright 1986, Carnegie Mellon
 University), and the Gaussian 82(TM) system (copyright 1983,
 Carnegie Mellon University). Gaussian is a federally registered
 trademark of Gaussian, Inc.
  
 This software contains proprietary and confidential information,
 including trade secrets, belonging to Gaussian, Inc.
  
 This software is provided under written license and may be
 used, copied, transmitted, or stored only in accord with that
 written license.
  
 The following legend is applicable only to US Government
 contracts under FAR:
  
                    RESTRICTED RIGHTS LEGEND
  
 Use, reproduction and disclosure by the US Government is
 subject to restrictions as set forth in subparagraphs (a)
 and (c) of the Commercial Computer Software - Restricted
 Rights clause in FAR 52.227-19.
  
 Gaussian, Inc.
 340 Quinnipiac St., Bldg. 40, Wallingford CT 06492
  
  
 ---------------------------------------------------------------
 Warning -- This program may not be used in any manner that
 competes with the business of Gaussian, Inc. or will provide
 assistance to any competitor of Gaussian, Inc.  The licensee
 of this program is prohibited from giving any competitor of
 Gaussian, Inc. access to this program.  By using this program,
 the user acknowledges that Gaussian, Inc. is engaged in the
 business of creating and licensing software in the field of
 computational chemistry and represents and warrants to the
 licensee that it is not a competitor of Gaussian, Inc. and that
 it will not use this program in any manner prohibited above.
 ---------------------------------------------------------------
  

 Cite this work as:
 Gaussian 16, Revision C.02,
 M. J. Frisch, G. W. Trucks, H. B. Schlegel, G. E. Scuseria, 
 M. A. Robb, J. R. Cheeseman, G. Scalmani, V. Barone, 
 G. A. Petersson, H. Nakatsuji, X. Li, M. Caricato, A. V. Marenich, 
 J. Bloino, B. G. Janesko, R. Gomperts, B. Mennucci, H. P. Hratchian, 
 J. V. Ortiz, A. F. Izmaylov, J. L. Sonnenberg, D. Williams-Young, 
 F. Ding, F. Lipparini, F. Egidi, J. Goings, B. Peng, A. Petrone, 
 T. Henderson, D. Ranasinghe, V. G. Zakrzewski, J. Gao, N. Rega, 
 G. Zheng, W. Liang, M. Hada, M. Ehara, K. Toyota, R. Fukuda, 
 J. Hasegawa, M. Ishida, T. Nakajima, Y. Honda, O. Kitao, H. Nakai, 
 T. Vreven, K. Throssell, J. A. Montgomery, Jr., J. E. Peralta, 
 F. Ogliaro, M. J. Bearpark, J. J. Heyd, E. N. Brothers, K. N. Kudin, 
 V. N. Staroverov, T. A. Keith, R. Kobayashi, J. Normand, 
 K. Raghavachari, A. P. Rendell, J. C. Burant, S. S. Iyengar, 
 J. Tomasi, M. Cossi, J. M. Millam, M. Klene, C. Adamo, R. Cammi, 
 J. W. Ochterski, R. L. Martin, K. Morokuma, O. Farkas, 
 J. B. Foresman, and D. J. Fox, Gaussian, Inc., Wallingford CT, 2019.
 
 ******************************************
 Gaussian 16:  ES64L-G16RevC.02  7-Dec-2021
                21-Feb-2025 
 ******************************************
 %chk=lactic_acid.016.tddft.chk
 %mem=9600MB
 SetSPE:  set environment variable "OMP_PROC_BIND" = "true"
 SetSPE:  set environment variable "OMP_PLACES" = "{16},{17},{18},{19},{20},{21},{22},{23}"
 ------------------------------
 # td=(nstat=16) b3lyp/6-31g(d)
 ------------------------------
 1/38=1,172=1/1;
 2/12=2,17=6,18=5,40=1/2;
 3/5=1,6=6,7=1,11=9,25=1,30=1,74=-5/1,2,3,8;
 4//1;
 5/5=2,38=5/2;
 8/6=1,10=2,108=16/1;
 9/41=16,42=1,70=2/14;
 6/7=2,8=2,9=2,10=2/1;
 99/5=1,9=1/99;
 -------------------
 lactic_acid | No.16
 -------------------
 Symbolic Z-matrix:
 Charge =  0 Multiplicity = 1
 C                    -0.65384  -0.19823  -0.3706 
 H                    -0.65764  -0.49849  -1.42971 
 O                    -0.93436  -1.3563    0.47304 
 H                    -1.76189  -1.78413   0.17507 
 C                    -1.64752   0.93141  -0.12613 
 H                    -1.40213   1.8098   -0.73052 
 H                    -2.6605    0.60438  -0.38646 
 H                    -1.6281    1.22454   0.92638 
 C                     0.76831   0.21756  -0.03451 
 O                     1.11243   1.33427   0.36012 
 O                     1.66431  -0.79695  -0.25358 
 H                     2.56962  -0.50862  -0.00402 
 
                          Input orientation:                          
 ---------------------------------------------------------------------
 Center     Atomic      Atomic             Coordinates (Angstroms)
 Number     Number       Type             X           Y           Z
 ---------------------------------------------------------------------
      1          6           0       -0.653843   -0.198233   -0.370596
      2          1           0       -0.657641   -0.498492   -1.429710
      3          8           0       -0.934360   -1.356298    0.473040
      4          1           0       -1.761890   -1.784129    0.175070
      5          6           0       -1.647524    0.931406   -0.126129
      6          1           0       -1.402125    1.809798   -0.730523
      7          1           0       -2.660498    0.604378   -0.386462
      8          1           0       -1.628103    1.224541    0.926382
      9          6           0        0.768309    0.217563   -0.034514
     10          8           0        1.112427    1.334265    0.360121
     11          8           0        1.664305   -0.796954   -0.253575
     12          1           0        2.569623   -0.508621   -0.004015
 ---------------------------------------------------------------------
                    Distance matrix (angstroms):
                    1          2          3          4          5
     1  C    0.000000
     2  H    1.100860   0.000000
     3  O    1.459975   2.105436   0.000000
     4  H    2.010121   2.333998   0.978075   0.000000
     5  C    1.524221   2.173430   2.470060   2.734581   0.000000
     6  H    2.172939   2.524148   3.419288   3.723686   1.094114
     7  H    2.161273   2.513190   2.750008   2.613002   1.095827
     8  H    2.157689   3.076005   2.710632   3.103943   1.092742
     9  C    1.519327   2.119585   2.373548   3.233049   2.520757
    10  O    2.449940   3.113781   3.382487   4.245035   2.831265
    11  O    2.397075   2.619887   2.755702   3.591248   3.737871
    12  H    3.259057   3.528164   3.636487   4.518960   4.457905
                    6          7          8          9         10
     6  H    0.000000
     7  H    1.776209   0.000000
     8  H    1.771701   1.781573   0.000000
     9  C    2.780364   3.468459   2.771302   0.000000
    10  O    2.781835   3.914727   2.800571   1.233360   0.000000
    11  O    4.052854   4.548111   4.039640   1.371146   2.285451
    12  H    4.655928   5.360895   4.635773   1.942423   2.377445
                   11         12
    11  O    0.000000
    12  H    0.982353   0.000000
 Stoichiometry    C3H6O3
 Framework group  C1[X(C3H6O3)]
 Deg. of freedom    30
 Full point group                 C1      NOp   1
 Largest Abelian subgroup         C1      NOp   1
 Largest concise Abelian subgroup C1      NOp   1
                         Standard orientation:                         
 ---------------------------------------------------------------------
 Center     Atomic      Atomic             Coordinates (Angstroms)
 Number     Number       Type             X           Y           Z
 ---------------------------------------------------------------------
      1          6           0        0.653843   -0.198233    0.370596
      2          1           0        0.657641   -0.498492    1.429710
      3          8           0        0.934360   -1.356298   -0.473040
      4          1           0        1.761890   -1.784129   -0.175070
      5          6           0        1.647524    0.931406    0.126129
      6          1           0        1.402125    1.809798    0.730523
      7          1           0        2.660498    0.604378    0.386462
      8          1           0        1.628103    1.224541   -0.926382
      9          6           0       -0.768309    0.217563    0.034514
     10          8           0       -1.112427    1.334265   -0.360121
     11          8           0       -1.664305   -0.796954    0.253575
     12          1           0       -2.569623   -0.508620    0.004015
 ---------------------------------------------------------------------
 Rotational constants (GHZ):           5.0405762           3.2198533           2.1696649
 Standard basis: 6-31G(d) (6D, 7F)
 There are   102 symmetry adapted cartesian basis functions of A   symmetry.
 There are   102 symmetry adapted basis functions of A   symmetry.
   102 basis functions,   192 primitive gaussians,   102 cartesian basis functions
    24 alpha electrons       24 beta electrons
       nuclear repulsion energy       246.1892780721 Hartrees.
 NAtoms=   12 NActive=   12 NUniq=   12 SFac= 1.00D+00 NAtFMM=   60 NAOKFM=F Big=F
 Integral buffers will be    131072 words long.
 Regular integral format.
 Two-electron integral symmetry is turned on.
 One-electron integrals computed using PRISM.
 NBasis=   102 RedAO= T EigKep=  3.15D-03  NBF=   102
 NBsUse=   102 1.00D-06 EigRej= -1.00D+00 NBFU=   102
 ExpMin= 1.61D-01 ExpMax= 5.48D+03 ExpMxC= 8.25D+02 IAcc=3 IRadAn=         5 AccDes= 0.00D+00
 Harris functional with IExCor=  402 and IRadAn=       5 diagonalized for initial guess.
 HarFok:  IExCor=  402 AccDes= 0.00D+00 IRadAn=         5 IDoV= 1 UseB2=F ITyADJ=14
 ICtDFT=  3500011 ScaDFX=  1.000000  1.000000  1.000000  1.000000
 FoFCou: FMM=F IPFlag=           0 FMFlag=      100000 FMFlg1=           0
         NFxFlg=           0 DoJE=T BraDBF=F KetDBF=T FulRan=T
         wScrn=  0.000000 ICntrl=       500 IOpCl=  0 I1Cent=   200000004 NGrid=           0
         NMat0=    1 NMatS0=      1 NMatT0=    0 NMatD0=    1 NMtDS0=    0 NMtDT0=    0
 Petite list used in FoFCou.
 Keep R1 ints in memory in canonical form, NReq=21214305.
 Requested convergence on RMS density matrix=1.00D-08 within 128 cycles.
 Requested convergence on MAX density matrix=1.00D-06.
 Requested convergence on             energy=1.00D-06.
 No special actions if energy rises.
 Integral accuracy reduced to 1.0D-05 until final iterations.
 Initial convergence to 1.0D-05 achieved.  Increase integral accuracy.
 SCF Done:  E(RB3LYP) =  -343.593748715     A.U. after   14 cycles
            NFock= 14  Conv=0.30D-08     -V/T= 2.0094
 DoSCS=F DFT=T ScalE2(SS,OS)=  1.000000  1.000000
 ExpMin= 1.61D-01 ExpMax= 5.48D+03 ExpMxC= 8.25D+02 IAcc=3 IRadAn=         5 AccDes= 0.00D+00
 HarFok:  IExCor=  205 AccDes= 0.00D+00 IRadAn=         5 IDoV=-2 UseB2=F ITyADJ=14
 ICtDFT= 12500011 ScaDFX=  1.000000  1.000000  1.000000  1.000000
 Range of M.O.s used for correlation:     7   102
 NBasis=   102 NAE=    24 NBE=    24 NFC=     6 NFV=     0
 NROrb=     96 NOA=    18 NOB=    18 NVA=    78 NVB=    78
 Keep R1, R2, and R3 ints in memory in canonical form, NReq=75112043.
 Orbital symmetries:
       Occupied  (A) (A) (A) (A) (A) (A) (A) (A) (A) (A) (A) (A)
                 (A) (A) (A) (A) (A) (A) (A) (A) (A) (A) (A) (A)
       Virtual   (A) (A) (A) (A) (A) (A) (A) (A) (A) (A) (A) (A)
                 (A) (A) (A) (A) (A) (A) (A) (A) (A) (A) (A) (A)
                 (A) (A) (A) (A) (A) (A) (A) (A) (A) (A) (A) (A)
                 (A) (A) (A) (A) (A) (A) (A) (A) (A) (A) (A) (A)
                 (A) (A) (A) (A) (A) (A) (A) (A) (A) (A) (A) (A)
                 (A) (A) (A) (A) (A) (A) (A) (A) (A) (A) (A) (A)
                 (A) (A) (A) (A) (A) (A)
    64 initial guesses have been made.
 Convergence on wavefunction:    0.001000000000000
 Iteration     1 Dimension    64 NMult     0 NNew     64
 CISAX will form    64 AO SS matrices at one time.
 New state      3 was old state      4
 New state      4 was old state      5
 New state      5 was old state      8
 New state      6 was old state      9
 New state      8 was old state      6
 New state      9 was old state     11
 New state     11 was old state     13
 New state     13 was old state     15
 New state     15 was old state     18
 New state     16 was old state     17
 Iteration     2 Dimension    96 NMult    64 NNew     32
 New state      3 was old state      4
 New state      4 was old state      3
 New state      6 was old state      7
 New state      7 was old state      6
 New state     15 was old state     16
 New state     16 was old state     15
 Iteration     3 Dimension   128 NMult    96 NNew     32
 Iteration     4 Dimension   156 NMult   128 NNew     28
 Iteration     5 Dimension   158 NMult   156 NNew      2
 ***********************************************************************
 Excited states from <AA,BB:AA,BB> singles matrix:
 ***********************************************************************
 
 Ground to excited state transition densities written to RWF  633
 Ground to excited state transition electric dipole moments (Au):
       state          X           Y           Z        Dip. S.      Osc.
         1         0.0016      0.0183      0.0577      0.0037      0.0005
         2         0.1847      0.0264      0.0610      0.0385      0.0058
         3         0.1146     -0.4469      0.1543      0.2367      0.0450
         4        -0.0468      0.0182      0.0317      0.0035      0.0007
         5         0.0163     -0.1003     -0.0135      0.0105      0.0021
         6        -0.3293     -0.4554      0.0489      0.3182      0.0665
         7        -0.0768     -0.2283     -0.0652      0.0623      0.0131
         8         0.1066      0.1289      0.0206      0.0284      0.0061
         9         0.3729      0.1176     -0.0960      0.1621      0.0349
        10        -0.0215     -0.0641     -0.0357      0.0059      0.0013
        11        -0.0367      0.2000     -0.1062      0.0526      0.0118
        12         0.0258      0.1396      0.0057      0.0202      0.0047
        13         0.0022      0.0685      0.2242      0.0550      0.0130
        14         0.1643     -0.0587      0.1025      0.0409      0.0098
        15        -0.1794     -0.2071      0.0786      0.0813      0.0198
        16        -0.0649     -0.0065     -0.0107      0.0044      0.0011
 Ground to excited state transition velocity dipole moments (Au):
       state          X           Y           Z        Dip. S.      Osc.
         1         0.0032     -0.0040     -0.0147      0.0002      0.0008
         2        -0.0502     -0.0279     -0.0005      0.0033      0.0098
         3        -0.0314      0.1144     -0.0341      0.0152      0.0357
         4         0.0014     -0.0174     -0.0197      0.0007      0.0016
         5         0.0204      0.0559     -0.0277      0.0043      0.0096
         6         0.0968      0.1405     -0.0179      0.0294      0.0626
         7         0.0249      0.0766      0.0337      0.0076      0.0161
         8        -0.0412     -0.0557     -0.0155      0.0050      0.0104
         9        -0.1245     -0.0306      0.0300      0.0173      0.0358
        10        -0.0010      0.0318      0.0477      0.0033      0.0066
        11         0.0074     -0.0631      0.0350      0.0053      0.0105
        12        -0.0092     -0.0475     -0.0038      0.0024      0.0045
        13         0.0144     -0.0083     -0.0897      0.0083      0.0157
        14        -0.0585      0.0189     -0.0400      0.0054      0.0100
        15         0.0633      0.0639     -0.0412      0.0098      0.0179
        16         0.0135     -0.0058     -0.0051      0.0002      0.0004
 Ground to excited state transition magnetic dipole moments (Au):
       state          X           Y           Z
         1        -0.2963      0.7213     -0.2050
         2        -0.1445     -0.1785     -0.1494
         3        -0.0689     -0.1630      0.1287
         4        -0.1738      0.1750     -0.1776
         5         0.4398      0.0878      0.6401
         6         0.2615      0.1742     -0.7950
         7        -0.9930     -0.4732      0.0669
         8         0.1248     -0.1504      0.1521
         9        -0.0356      0.3595      0.0100
        10        -0.1325      0.2962     -0.1929
        11         0.0629      0.1150      0.2997
        12        -0.5400     -0.2204     -0.1096
        13        -0.0491      0.1068      0.0627
        14         0.1108      0.2009      0.2131
        15         0.0501     -0.0035     -0.2632
        16         0.0640      0.1423     -0.1052
 Ground to excited state transition velocity quadrupole moments (Au):
       state          XX          YY          ZZ          XY          XZ          YZ
         1         0.0483      0.0177     -0.0423     -0.0328     -0.0260      0.0010
         2        -0.0381      0.1479     -0.1289     -0.0113      0.0181     -0.0267
         3         0.0181      0.1721     -0.0596     -0.4038      0.1453     -0.0820
         4        -0.3053      0.0313      0.2213     -0.0821     -0.0151     -0.0035
         5         0.2651     -0.3552      0.1561      0.0099     -0.1404      0.1629
         6        -0.6934      0.0963      0.0853     -0.2871      0.1426     -0.0533
         7        -0.0615     -0.1624      0.0788      0.0738      0.0595     -0.2231
         8        -0.1046      0.1001     -0.0322      0.0527      0.1214      0.0282
         9         0.2404     -0.2379      0.0812      0.4937     -0.0814     -0.0232
        10        -0.0064     -0.0097      0.0451     -0.2335     -0.2588     -0.1128
        11        -0.0416      0.0038      0.0624     -0.0091      0.0673     -0.1078
        12         0.0330     -0.0735      0.0738     -0.0513      0.0547     -0.1010
        13         0.2079      0.0195     -0.3914     -0.1473     -0.1384      0.1575
        14         0.1232     -0.0968     -0.2150      0.0067     -0.0369      0.1516
        15        -0.4055      0.0668      0.0964     -0.1922      0.1293      0.0489
        16        -0.2264     -0.0234      0.1781      0.3414      0.0868      0.0387
 <0|del|b> * <b|rxdel|0> + <0|del|b> * <b|delr+rdel|0>
 Rotatory Strengths (R) in cgs (10**-40 erg-esu-cm/Gauss)
       state          XX          YY          ZZ    R(velocity)    E-M Angle
         1         0.9931      2.8591     -6.7061     -0.9513       93.60
         2         8.7716     13.6518     16.3782     12.9339       38.56
         3       -32.1292    -16.6742     -3.0246    -17.2760      140.62
         4         2.2170      2.0079     -3.6966      0.1761       88.46
         5        -6.1962     -6.1136      3.1761     -3.0446       94.33
         6        26.8848     33.0225     84.6121     48.1731       64.11
         7       -40.4897    -34.2171    -57.0794    -43.9287      127.60
         8        13.1562     -8.6248     -2.5959      0.6452       87.13
         9         1.7468     -7.8577     -7.6186     -4.5765       97.58
        10        -2.8478      2.3079      1.2807      0.2469       89.07
        11         7.5529     11.0497    -10.8005      2.6007       81.03
        12        13.9922      6.2659     12.1820     10.8134       56.58
        13         5.5430    -17.2420     -2.7101     -4.8030      126.44
        14        -4.2416    -23.2121      5.3898     -7.3546      119.25
        15         9.9474      8.8989      7.8439      8.8967       58.65
        16        -1.4438      3.4751     -0.9290      0.3674       78.56
 1/2[<0|r|b>*<b|rxdel|0> + (<0|rxdel|b>*<b|r|0>)*]
 Rotatory Strengths (R) in cgs (10**-40 erg-esu-cm/Gauss)
       state          XX          YY          ZZ     R(length)
         1         0.3383     -9.3400      8.3633     -0.2128
         2        18.8722      3.3348      6.4413      9.5494
         3         5.5826    -51.5318    -14.0488    -19.9993
         4        -5.7533     -2.2560      3.9756     -1.3445
         5        -5.0743      6.2263      6.0921      2.4147
         6        60.9006     56.0926     27.5173     48.1702
         7       -53.9336    -76.3965      3.0828    -42.4158
         8        -9.4088     13.7089     -2.2124      0.6959
         9         9.3986    -29.8867      0.6809     -6.6024
        10        -2.0167     13.4296     -4.8748      2.1794
        11         1.6326    -16.2659     22.4967      2.6211
        12         9.8588     21.7614      0.4412     10.6871
        13         0.0771     -5.1753     -9.9442     -5.0141
        14       -12.8689      8.3379    -15.4523     -6.6611
        15         6.3546     -0.5153     14.6389      6.8261
        16         2.9401      0.6507     -0.7960      0.9316
  1/2[<0|del|b>*<b|r|0> + (<0|r|b>*<b|del|0>)*] (Au)
       state          X           Y           Z        Dip. S.   Osc.(frdel)
         1         0.0000     -0.0001     -0.0009      0.0009      0.0006
         2        -0.0093     -0.0007     -0.0000      0.0100      0.0067
         3        -0.0036     -0.0511     -0.0053      0.0600      0.0400
         4        -0.0001     -0.0003     -0.0006      0.0010      0.0007
         5         0.0003     -0.0056      0.0004      0.0049      0.0033
         6        -0.0319     -0.0640     -0.0009      0.0968      0.0645
         7        -0.0019     -0.0175     -0.0022      0.0216      0.0144
         8        -0.0044     -0.0072     -0.0003      0.0119      0.0079
         9        -0.0464     -0.0036     -0.0029      0.0529      0.0353
        10         0.0000     -0.0020     -0.0017      0.0037      0.0025
        11        -0.0003     -0.0126     -0.0037      0.0166      0.0111
        12        -0.0002     -0.0066     -0.0000      0.0069      0.0046
        13         0.0000     -0.0006     -0.0201      0.0206      0.0138
        14        -0.0096     -0.0011     -0.0041      0.0148      0.0099
        15        -0.0114     -0.0132     -0.0032      0.0278      0.0186
        16        -0.0009      0.0000      0.0001      0.0008      0.0005

 Excitation energies and oscillator strengths:
 
 Excited State   1:      Singlet-A      5.3237 eV  232.89 nm  f=0.0005  <S**2>=0.000
      24 -> 25         0.70057
 This state for optimization and/or second-order correction.
 Total Energy, E(TD-HF/TD-DFT) =  -343.398107545    
 Copying the excited state density for this state as the 1-particle RhoCI density.
 
 Excited State   2:      Singlet-A      6.1001 eV  203.25 nm  f=0.0058  <S**2>=0.000
      23 -> 25         0.70534
 
 Excited State   3:      Singlet-A      7.7532 eV  159.91 nm  f=0.0450  <S**2>=0.000
      21 -> 25        -0.12732
      22 -> 25         0.56896
      24 -> 26        -0.34986
      24 -> 27         0.14462
 
 Excited State   4:      Singlet-A      7.8465 eV  158.01 nm  f=0.0007  <S**2>=0.000
      20 -> 25         0.10825
      21 -> 25         0.67797
      22 -> 25         0.11720
 
 Excited State   5:      Singlet-A      8.1602 eV  151.94 nm  f=0.0021  <S**2>=0.000
      23 -> 26         0.45883
      23 -> 27         0.52271
 
 Excited State   6:      Singlet-A      8.5282 eV  145.38 nm  f=0.0665  <S**2>=0.000
      20 -> 25        -0.10592
      22 -> 25         0.29456
      24 -> 26         0.58843
      24 -> 27         0.16480
 
 Excited State   7:      Singlet-A      8.5726 eV  144.63 nm  f=0.0131  <S**2>=0.000
      18 -> 25         0.20472
      20 -> 25         0.64100
      21 -> 25        -0.12311
      24 -> 26         0.11236
 
 Excited State   8:      Singlet-A      8.7469 eV  141.75 nm  f=0.0061  <S**2>=0.000
      22 -> 26        -0.12331
      23 -> 26         0.51231
      23 -> 27        -0.44930
 
 Excited State   9:      Singlet-A      8.7907 eV  141.04 nm  f=0.0349  <S**2>=0.000
      22 -> 25        -0.18309
      24 -> 27         0.65124
 
 Excited State  10:      Singlet-A      9.0781 eV  136.58 nm  f=0.0013  <S**2>=0.000
      22 -> 26         0.62352
      22 -> 27        -0.26894
      23 -> 26         0.11735
 
 Excited State  11:      Singlet-A      9.1320 eV  135.77 nm  f=0.0118  <S**2>=0.000
      19 -> 25         0.68533
      20 -> 25         0.11126
 
 Excited State  12:      Singlet-A      9.4162 eV  131.67 nm  f=0.0047  <S**2>=0.000
      18 -> 25         0.66431
      20 -> 25        -0.20446
 
 Excited State  13:      Singlet-A      9.6375 eV  128.65 nm  f=0.0130  <S**2>=0.000
      23 -> 28         0.67912
 
 Excited State  14:      Singlet-A      9.7839 eV  126.72 nm  f=0.0098  <S**2>=0.000
      17 -> 25         0.15251
      22 -> 27        -0.14279
      24 -> 28         0.66031
 
 Excited State  15:      Singlet-A      9.9444 eV  124.68 nm  f=0.0198  <S**2>=0.000
      17 -> 25         0.18449
      21 -> 26        -0.10280
      22 -> 26         0.25121
      22 -> 27         0.60071
 
 Excited State  16:      Singlet-A     10.1469 eV  122.19 nm  f=0.0011  <S**2>=0.000
      16 -> 25         0.60537
      17 -> 25         0.28098
      21 -> 26        -0.10647
      22 -> 27        -0.10667
      24 -> 28        -0.10042
 SavETr:  write IOETrn=   770 NScale= 10 NData=  16 NLR=1 NState=   16 LETran=     298.

 **********************************************************************

            Population analysis using the SCF Density.

 **********************************************************************

 Orbital symmetries:
       Occupied  (A) (A) (A) (A) (A) (A) (A) (A) (A) (A) (A) (A)
                 (A) (A) (A) (A) (A) (A) (A) (A) (A) (A) (A) (A)
       Virtual   (A) (A) (A) (A) (A) (A) (A) (A) (A) (A) (A) (A)
                 (A) (A) (A) (A) (A) (A) (A) (A) (A) (A) (A) (A)
                 (A) (A) (A) (A) (A) (A) (A) (A) (A) (A) (A) (A)
                 (A) (A) (A) (A) (A) (A) (A) (A) (A) (A) (A) (A)
                 (A) (A) (A) (A) (A) (A) (A) (A) (A) (A) (A) (A)
                 (A) (A) (A) (A) (A) (A) (A) (A) (A) (A) (A) (A)
                 (A) (A) (A) (A) (A) (A)
 The electronic state is 1-A.
 Alpha  occ. eigenvalues --  -19.19642 -19.15524 -19.14487 -10.32642 -10.26136
 Alpha  occ. eigenvalues --  -10.18469  -1.09435  -1.01599  -1.00751  -0.77374
 Alpha  occ. eigenvalues --   -0.68184  -0.58639  -0.52746  -0.50085  -0.47509
 Alpha  occ. eigenvalues --   -0.43130  -0.42000  -0.40724  -0.38926  -0.37673
 Alpha  occ. eigenvalues --   -0.34609  -0.31609  -0.28013  -0.27603
 Alpha virt. eigenvalues --   -0.01267   0.06880   0.07882   0.11939   0.14387
 Alpha virt. eigenvalues --    0.15267   0.16999   0.22017   0.22557   0.23109
 Alpha virt. eigenvalues --    0.30865   0.34161   0.52729   0.53442   0.56301
 Alpha virt. eigenvalues --    0.57087   0.60764   0.62767   0.65748   0.67676
 Alpha virt. eigenvalues --    0.72282   0.77142   0.78374   0.81524   0.85156
 Alpha virt. eigenvalues --    0.87135   0.88652   0.90012   0.92156   0.95129
 Alpha virt. eigenvalues --    0.95715   0.99636   1.02825   1.05600   1.05648
 Alpha virt. eigenvalues --    1.10189   1.21319   1.26656   1.35182   1.41482
 Alpha virt. eigenvalues --    1.42130   1.46038   1.58306   1.60401   1.67315
 Alpha virt. eigenvalues --    1.71909   1.73513   1.75385   1.78905   1.82047
 Alpha virt. eigenvalues --    1.83830   1.87506   1.90304   1.96186   1.99945
 Alpha virt. eigenvalues --    2.02762   2.10205   2.14811   2.19473   2.26270
 Alpha virt. eigenvalues --    2.33175   2.36293   2.41936   2.45947   2.53644
 Alpha virt. eigenvalues --    2.56975   2.65401   2.67135   2.83606   2.87539
 Alpha virt. eigenvalues --    2.96564   3.07886   3.70706   3.82192   4.06472
 Alpha virt. eigenvalues --    4.22255   4.34149   4.56630
          Condensed to atoms (all electrons):
               1          2          3          4          5          6
     1  C    4.962170   0.348644   0.226511  -0.017600   0.348913  -0.020534
     2  H    0.348644   0.619654  -0.030686  -0.006860  -0.055981   0.001512
     3  O    0.226511  -0.030686   8.277249   0.228242  -0.046830   0.003480
     4  H   -0.017600  -0.006860   0.228242   0.393930  -0.001463  -0.000144
     5  C    0.348913  -0.055981  -0.046830  -0.001463   5.163248   0.344896
     6  H   -0.020534   0.001512   0.003480  -0.000144   0.344896   0.558445
     7  H   -0.027959  -0.003543  -0.000838   0.002721   0.358473  -0.028015
     8  H   -0.027441   0.005496   0.001968  -0.000550   0.372034  -0.023116
     9  C    0.303088  -0.032563  -0.041056   0.005411  -0.044657  -0.000860
    10  O   -0.080506   0.002063   0.000243  -0.000084   0.004196   0.002373
    11  O   -0.091748   0.000425   0.004362  -0.000080   0.003407  -0.000001
    12  H    0.009494  -0.000487  -0.000240   0.000036  -0.000269  -0.000006
               7          8          9         10         11         12
     1  C   -0.027959  -0.027441   0.303088  -0.080506  -0.091748   0.009494
     2  H   -0.003543   0.005496  -0.032563   0.002063   0.000425  -0.000487
     3  O   -0.000838   0.001968  -0.041056   0.000243   0.004362  -0.000240
     4  H    0.002721  -0.000550   0.005411  -0.000084  -0.000080   0.000036
     5  C    0.358473   0.372034  -0.044657   0.004196   0.003407  -0.000269
     6  H   -0.028015  -0.023116  -0.000860   0.002373  -0.000001  -0.000006
     7  H    0.586309  -0.028967   0.005454   0.000458  -0.000036   0.000003
     8  H   -0.028967   0.527142  -0.007395   0.003673   0.000023  -0.000009
     9  C    0.005454  -0.007395   4.378345   0.561629   0.284345  -0.006774
    10  O    0.000458   0.003673   0.561629   8.043472  -0.080659   0.008173
    11  O   -0.000036   0.000023   0.284345  -0.080659   8.228278   0.217776
    12  H    0.000003  -0.000009  -0.006774   0.008173   0.217776   0.358634
 Mulliken charges:
               1
     1  C    0.066968
     2  H    0.152326
     3  O   -0.622405
     4  H    0.396441
     5  C   -0.445967
     6  H    0.161970
     7  H    0.135941
     8  H    0.177143
     9  C    0.595035
    10  O   -0.465030
    11  O   -0.566092
    12  H    0.413669
 Sum of Mulliken charges =  -0.00000
 Mulliken charges with hydrogens summed into heavy atoms:
               1
     1  C    0.219295
     3  O   -0.225964
     5  C    0.029088
     9  C    0.595035
    10  O   -0.465030
    11  O   -0.152423
 Electronic spatial extent (au):  <R**2>=            573.7769
 Charge=             -0.0000 electrons
 Dipole moment (field-independent basis, Debye):
    X=              1.1367    Y=             -1.0089    Z=              1.5807  Tot=              2.1928
 Quadrupole moment (field-independent basis, Debye-Ang):
   XX=            -26.0951   YY=            -39.0455   ZZ=            -35.3589
   XY=             -0.1356   XZ=              1.1552   YZ=              0.1064
 Traceless Quadrupole moment (field-independent basis, Debye-Ang):
   XX=              7.4048   YY=             -5.5457   ZZ=             -1.8591
   XY=             -0.1356   XZ=              1.1552   YZ=              0.1064
 Octapole moment (field-independent basis, Debye-Ang**2):
  XXX=            -19.3409  YYY=            -10.1732  ZZZ=             -1.0817  XYY=              9.3878
  XXY=            -13.4122  XXZ=             -0.7724  XZZ=             -2.2301  YZZ=             -0.2115
  YYZ=              2.3193  XYZ=             -3.2516
 Hexadecapole moment (field-independent basis, Debye-Ang**3):
 XXXX=           -298.8657 YYYY=           -231.8287 ZZZZ=            -62.8711 XXXY=             -9.3743
 XXXZ=              0.8100 YYYX=            -15.3450 YYYZ=              2.1602 ZZZX=             -1.1481
 ZZZY=             -1.7445 XXYY=            -94.7845 XXZZ=            -76.5820 YYZZ=            -49.9612
 XXYZ=              2.5719 YYXZ=             -0.8897 ZZXY=             -1.0976
 N-N= 2.461892780721D+02 E-N=-1.297912566774D+03  KE= 3.404000382263D+02
 Unable to Open any file for archive entry.
 1\1\GINC-CCC413\SP\RB3LYP TD-FC\6-31G(d)\C3H6O3\ROOT\21-Feb-2025\0\\# 
 td=(nstat=16) b3lyp/6-31g(d)\\lactic_acid | No.16\\0,1\C,0,-0.653843,-
 0.198233,-0.370596\H,0,-0.657641,-0.498492,-1.42971\O,0,-0.93436,-1.35
 6298,0.47304\H,0,-1.76189,-1.784129,0.17507\C,0,-1.647524,0.931406,-0.
 126129\H,0,-1.402125,1.809798,-0.730523\H,0,-2.660498,0.604378,-0.3864
 62\H,0,-1.628103,1.224541,0.926382\C,0,0.768309,0.217563,-0.034514\O,0
 ,1.112427,1.334265,0.360121\O,0,1.664305,-0.796954,-0.253575\H,0,2.569
 623,-0.508621,-0.004015\\Version=ES64L-G16RevC.02\State=1-A\HF=-343.59
 37487\RMSD=3.028e-09\PG=C01 [X(C3H6O3)]\\@
 The archive entry for this job was punched.


 SI MONUMENTUM REQUIRIS, CIRCUMSPICE
     -- FROM SIR CHRISTOPHER WREN'S TOMBSTONE
 Job cpu time:       0 days  0 hours  3 minutes 49.6 seconds.
 Elapsed time:       0 days  0 hours  0 minutes 35.9 seconds.
 File lengths (MBytes):  RWF=    178 Int=      0 D2E=      0 Chk=      8 Scr=      1
 Normal termination of Gaussian 16 at Fri Feb 21 14:05:24 2025.
