 Entering Gaussian System, Link 0=/apl/gaussian/16c02/g16/._.g16
 Initial command:
 /apl/gaussian/16c02/g16/l1.exe "/lwork/users/ux8/8286859.ccpbs1/gaussian/Gau-1930500.inp" -scrdir="/lwork/users/ux8/8286859.ccpbs1/gaussian/"
 Default CPUs for threads: 104,105,106,107,108,109,110,111
 Default is to use a total of   8 processors:
                                8 via shared-memory
                                1 via Linda
 Entering Link 1 = /apl/gaussian/16c02/g16/l1.exe PID=   1930501.
  
 Copyright (c) 1988-2021, Gaussian, Inc.  All Rights Reserved.
  
 This is part of the Gaussian(R) 16 program.  It is based on
 the Gaussian(R) 09 system (copyright 2009, Gaussian, Inc.),
 the Gaussian(R) 03 system (copyright 2003, Gaussian, Inc.),
 the Gaussian(R) 98 system (copyright 1998, Gaussian, Inc.),
 the Gaussian(R) 94 system (copyright 1995, Gaussian, Inc.),
 the Gaussian 92(TM) system (copyright 1992, Gaussian, Inc.),
 the Gaussian 90(TM) system (copyright 1990, Gaussian, Inc.),
 the Gaussian 88(TM) system (copyright 1988, Gaussian, Inc.),
 the Gaussian 86(TM) system (copyright 1986, Carnegie Mellon
 University), and the Gaussian 82(TM) system (copyright 1983,
 Carnegie Mellon University). Gaussian is a federally registered
 trademark of Gaussian, Inc.
  
 This software contains proprietary and confidential information,
 including trade secrets, belonging to Gaussian, Inc.
  
 This software is provided under written license and may be
 used, copied, transmitted, or stored only in accord with that
 written license.
  
 The following legend is applicable only to US Government
 contracts under FAR:
  
                    RESTRICTED RIGHTS LEGEND
  
 Use, reproduction and disclosure by the US Government is
 subject to restrictions as set forth in subparagraphs (a)
 and (c) of the Commercial Computer Software - Restricted
 Rights clause in FAR 52.227-19.
  
 Gaussian, Inc.
 340 Quinnipiac St., Bldg. 40, Wallingford CT 06492
  
  
 ---------------------------------------------------------------
 Warning -- This program may not be used in any manner that
 competes with the business of Gaussian, Inc. or will provide
 assistance to any competitor of Gaussian, Inc.  The licensee
 of this program is prohibited from giving any competitor of
 Gaussian, Inc. access to this program.  By using this program,
 the user acknowledges that Gaussian, Inc. is engaged in the
 business of creating and licensing software in the field of
 computational chemistry and represents and warrants to the
 licensee that it is not a competitor of Gaussian, Inc. and that
 it will not use this program in any manner prohibited above.
 ---------------------------------------------------------------
  

 Cite this work as:
 Gaussian 16, Revision C.02,
 M. J. Frisch, G. W. Trucks, H. B. Schlegel, G. E. Scuseria, 
 M. A. Robb, J. R. Cheeseman, G. Scalmani, V. Barone, 
 G. A. Petersson, H. Nakatsuji, X. Li, M. Caricato, A. V. Marenich, 
 J. Bloino, B. G. Janesko, R. Gomperts, B. Mennucci, H. P. Hratchian, 
 J. V. Ortiz, A. F. Izmaylov, J. L. Sonnenberg, D. Williams-Young, 
 F. Ding, F. Lipparini, F. Egidi, J. Goings, B. Peng, A. Petrone, 
 T. Henderson, D. Ranasinghe, V. G. Zakrzewski, J. Gao, N. Rega, 
 G. Zheng, W. Liang, M. Hada, M. Ehara, K. Toyota, R. Fukuda, 
 J. Hasegawa, M. Ishida, T. Nakajima, Y. Honda, O. Kitao, H. Nakai, 
 T. Vreven, K. Throssell, J. A. Montgomery, Jr., J. E. Peralta, 
 F. Ogliaro, M. J. Bearpark, J. J. Heyd, E. N. Brothers, K. N. Kudin, 
 V. N. Staroverov, T. A. Keith, R. Kobayashi, J. Normand, 
 K. Raghavachari, A. P. Rendell, J. C. Burant, S. S. Iyengar, 
 J. Tomasi, M. Cossi, J. M. Millam, M. Klene, C. Adamo, R. Cammi, 
 J. W. Ochterski, R. L. Martin, K. Morokuma, O. Farkas, 
 J. B. Foresman, and D. J. Fox, Gaussian, Inc., Wallingford CT, 2019.
 
 ******************************************
 Gaussian 16:  ES64L-G16RevC.02  7-Dec-2021
                21-Feb-2025 
 ******************************************
 %chk=lactic_acid.002.tddft.chk
 %mem=9600MB
 SetSPE:  set environment variable "OMP_PROC_BIND" = "true"
 SetSPE:  set environment variable "OMP_PLACES" = "{104},{105},{106},{107},{108},{109},{110},{111}"
 ------------------------------
 # td=(nstat=16) b3lyp/6-31g(d)
 ------------------------------
 1/38=1,172=1/1;
 2/12=2,17=6,18=5,40=1/2;
 3/5=1,6=6,7=1,11=9,25=1,30=1,74=-5/1,2,3,8;
 4//1;
 5/5=2,38=5/2;
 8/6=1,10=2,108=16/1;
 9/41=16,42=1,70=2/14;
 6/7=2,8=2,9=2,10=2/1;
 99/5=1,9=1/99;
 ------------------
 lactic_acid | No.2
 ------------------
 Symbolic Z-matrix:
 Charge =  0 Multiplicity = 1
 C                    -0.655    -0.2911   -0.37492 
 H                    -0.71077  -0.87616  -1.30099 
 O                    -1.07849  -1.10855   0.76481 
 H                    -1.99568  -1.41827   0.61968 
 C                    -1.48302   0.98734  -0.47515 
 H                    -1.13431   1.62433  -1.29582 
 H                    -2.53367   0.73864  -0.66713 
 H                    -1.41224   1.54865   0.45846 
 C                     0.82333  -0.04967  -0.12356 
 O                     1.7399   -0.6822   -0.6497 
 O                     1.04687   0.97075   0.77001 
 H                     2.00856   1.06336   0.94665 
 
                          Input orientation:                          
 ---------------------------------------------------------------------
 Center     Atomic      Atomic             Coordinates (Angstroms)
 Number     Number       Type             X           Y           Z
 ---------------------------------------------------------------------
      1          6           0       -0.655001   -0.291104   -0.374918
      2          1           0       -0.710765   -0.876164   -1.300985
      3          8           0       -1.078487   -1.108546    0.764806
      4          1           0       -1.995683   -1.418266    0.619680
      5          6           0       -1.483022    0.987338   -0.475153
      6          1           0       -1.134312    1.624325   -1.295820
      7          1           0       -2.533673    0.738639   -0.667128
      8          1           0       -1.412237    1.548648    0.458456
      9          6           0        0.823326   -0.049672   -0.123562
     10          8           0        1.739900   -0.682196   -0.649700
     11          8           0        1.046873    0.970752    0.770012
     12          1           0        2.008565    1.063362    0.946649
 ---------------------------------------------------------------------
                    Distance matrix (angstroms):
                    1          2          3          4          5
     1  C    0.000000
     2  H    1.096816   0.000000
     3  O    1.465102   2.111093   0.000000
     4  H    2.014236   2.373572   0.978896   0.000000
     5  C    1.526460   2.179683   2.468578   2.692287   0.000000
     6  H    2.178685   2.536112   3.423139   3.697088   1.095831
     7  H    2.162213   2.516417   2.753197   2.568569   1.096619
     8  H    2.156990   3.076915   2.695537   3.028033   1.091653
     9  C    1.518855   2.103057   2.351022   3.220601   2.553086
    10  O    2.442132   2.543139   3.182123   4.013441   3.633874
    11  O    2.408219   3.284725   2.973325   3.871325   2.819766
    12  H    3.267369   4.025963   3.778907   4.722223   3.770740
                    6          7          8          9         10
     6  H    0.000000
     7  H    1.771413   0.000000
     8  H    1.777766   1.783444   0.000000
     9  C    2.829983   3.490894   2.809113   0.000000
    10  O    3.741471   4.503610   4.017542   1.231672   0.000000
    11  O    3.074474   3.865172   2.545241   1.374668   2.286505
    12  H    3.901413   4.831319   3.489373   1.946532   2.380648
                   11         12
    11  O    0.000000
    12  H    0.982155   0.000000
 Stoichiometry    C3H6O3
 Framework group  C1[X(C3H6O3)]
 Deg. of freedom    30
 Full point group                 C1      NOp   1
 Largest Abelian subgroup         C1      NOp   1
 Largest concise Abelian subgroup C1      NOp   1
                         Standard orientation:                         
 ---------------------------------------------------------------------
 Center     Atomic      Atomic             Coordinates (Angstroms)
 Number     Number       Type             X           Y           Z
 ---------------------------------------------------------------------
      1          6           0       -0.655001   -0.291104   -0.374918
      2          1           0       -0.710765   -0.876164   -1.300985
      3          8           0       -1.078487   -1.108546    0.764806
      4          1           0       -1.995683   -1.418266    0.619680
      5          6           0       -1.483022    0.987338   -0.475153
      6          1           0       -1.134312    1.624325   -1.295820
      7          1           0       -2.533673    0.738639   -0.667128
      8          1           0       -1.412237    1.548648    0.458456
      9          6           0        0.823326   -0.049672   -0.123562
     10          8           0        1.739900   -0.682196   -0.649700
     11          8           0        1.046873    0.970752    0.770012
     12          1           0        2.008565    1.063362    0.946649
 ---------------------------------------------------------------------
 Rotational constants (GHZ):           5.0667317           2.8436740           2.4436643
 Standard basis: 6-31G(d) (6D, 7F)
 There are   102 symmetry adapted cartesian basis functions of A   symmetry.
 There are   102 symmetry adapted basis functions of A   symmetry.
   102 basis functions,   192 primitive gaussians,   102 cartesian basis functions
    24 alpha electrons       24 beta electrons
       nuclear repulsion energy       246.2326967315 Hartrees.
 NAtoms=   12 NActive=   12 NUniq=   12 SFac= 1.00D+00 NAtFMM=   60 NAOKFM=F Big=F
 Integral buffers will be    131072 words long.
 Regular integral format.
 Two-electron integral symmetry is turned on.
 One-electron integrals computed using PRISM.
 NBasis=   102 RedAO= T EigKep=  3.28D-03  NBF=   102
 NBsUse=   102 1.00D-06 EigRej= -1.00D+00 NBFU=   102
 ExpMin= 1.61D-01 ExpMax= 5.48D+03 ExpMxC= 8.25D+02 IAcc=3 IRadAn=         5 AccDes= 0.00D+00
 Harris functional with IExCor=  402 and IRadAn=       5 diagonalized for initial guess.
 HarFok:  IExCor=  402 AccDes= 0.00D+00 IRadAn=         5 IDoV= 1 UseB2=F ITyADJ=14
 ICtDFT=  3500011 ScaDFX=  1.000000  1.000000  1.000000  1.000000
 FoFCou: FMM=F IPFlag=           0 FMFlag=      100000 FMFlg1=           0
         NFxFlg=           0 DoJE=T BraDBF=F KetDBF=T FulRan=T
         wScrn=  0.000000 ICntrl=       500 IOpCl=  0 I1Cent=   200000004 NGrid=           0
         NMat0=    1 NMatS0=      1 NMatT0=    0 NMatD0=    1 NMtDS0=    0 NMtDT0=    0
 Petite list used in FoFCou.
 Keep R1 ints in memory in canonical form, NReq=21214305.
 Requested convergence on RMS density matrix=1.00D-08 within 128 cycles.
 Requested convergence on MAX density matrix=1.00D-06.
 Requested convergence on             energy=1.00D-06.
 No special actions if energy rises.
 Integral accuracy reduced to 1.0D-05 until final iterations.
 Initial convergence to 1.0D-05 achieved.  Increase integral accuracy.
 SCF Done:  E(RB3LYP) =  -343.592106461     A.U. after   14 cycles
            NFock= 14  Conv=0.31D-08     -V/T= 2.0094
 DoSCS=F DFT=T ScalE2(SS,OS)=  1.000000  1.000000
 ExpMin= 1.61D-01 ExpMax= 5.48D+03 ExpMxC= 8.25D+02 IAcc=3 IRadAn=         5 AccDes= 0.00D+00
 HarFok:  IExCor=  205 AccDes= 0.00D+00 IRadAn=         5 IDoV=-2 UseB2=F ITyADJ=14
 ICtDFT= 12500011 ScaDFX=  1.000000  1.000000  1.000000  1.000000
 Range of M.O.s used for correlation:     7   102
 NBasis=   102 NAE=    24 NBE=    24 NFC=     6 NFV=     0
 NROrb=     96 NOA=    18 NOB=    18 NVA=    78 NVB=    78
 Keep R1, R2, and R3 ints in memory in canonical form, NReq=75112043.
 Orbital symmetries:
       Occupied  (A) (A) (A) (A) (A) (A) (A) (A) (A) (A) (A) (A)
                 (A) (A) (A) (A) (A) (A) (A) (A) (A) (A) (A) (A)
       Virtual   (A) (A) (A) (A) (A) (A) (A) (A) (A) (A) (A) (A)
                 (A) (A) (A) (A) (A) (A) (A) (A) (A) (A) (A) (A)
                 (A) (A) (A) (A) (A) (A) (A) (A) (A) (A) (A) (A)
                 (A) (A) (A) (A) (A) (A) (A) (A) (A) (A) (A) (A)
                 (A) (A) (A) (A) (A) (A) (A) (A) (A) (A) (A) (A)
                 (A) (A) (A) (A) (A) (A) (A) (A) (A) (A) (A) (A)
                 (A) (A) (A) (A) (A) (A)
    64 initial guesses have been made.
 Convergence on wavefunction:    0.001000000000000
 Iteration     1 Dimension    64 NMult     0 NNew     64
 CISAX will form    64 AO SS matrices at one time.
 New state      3 was old state      5
 New state      5 was old state      6
 New state      6 was old state      7
 New state      7 was old state      9
 New state      9 was old state     11
 New state     11 was old state     12
 New state     12 was old state     13
 New state     13 was old state     14
 New state     14 was old state     15
 New state     15 was old state     16
 New state     16 was old state     22
 Iteration     2 Dimension    96 NMult    64 NNew     32
 New state      6 was old state      8
 New state      8 was old state      6
 New state      9 was old state     11
 New state     10 was old state      9
 New state     11 was old state     10
 New state     13 was old state     14
 New state     14 was old state     13
 Iteration     3 Dimension   128 NMult    96 NNew     32
 Iteration     4 Dimension   158 NMult   128 NNew     30
 Iteration     5 Dimension   160 NMult   158 NNew      2
 ***********************************************************************
 Excited states from <AA,BB:AA,BB> singles matrix:
 ***********************************************************************
 
 Ground to excited state transition densities written to RWF  633
 Ground to excited state transition electric dipole moments (Au):
       state          X           Y           Z        Dip. S.      Osc.
         1         0.0230     -0.0769      0.0549      0.0095      0.0012
         2        -0.0492      0.0015      0.0272      0.0032      0.0005
         3         0.3034     -0.1384     -0.1825      0.1445      0.0273
         4         0.0472     -0.0992      0.0129      0.0122      0.0024
         5         0.1605     -0.2154      0.0020      0.0722      0.0141
         6         0.0900     -0.3332     -0.4653      0.3356      0.0696
         7         0.1513     -0.2132     -0.0255      0.0690      0.0145
         8        -0.1914     -0.1906     -0.0096      0.0731      0.0155
         9         0.2164      0.3045      0.2535      0.2038      0.0442
        10         0.0732     -0.0151     -0.0153      0.0058      0.0013
        11        -0.0322      0.0440     -0.0495      0.0054      0.0012
        12         0.3777     -0.0667      0.0797      0.1534      0.0368
        13        -0.1943      0.2830      0.0513      0.1205      0.0291
        14         0.0244      0.0248     -0.1273      0.0174      0.0042
        15        -0.2294     -0.0557     -0.0744      0.0612      0.0150
        16        -0.3186     -0.0246      0.0233      0.1027      0.0256
 Ground to excited state transition velocity dipole moments (Au):
       state          X           Y           Z        Dip. S.      Osc.
         1         0.0003      0.0138     -0.0142      0.0004      0.0014
         2         0.0189     -0.0240     -0.0192      0.0013      0.0039
         3        -0.0753      0.0245      0.0511      0.0089      0.0209
         4        -0.0140      0.0254     -0.0250      0.0015      0.0034
         5        -0.0594      0.0978      0.0107      0.0132      0.0300
         6        -0.0286      0.0871      0.1319      0.0258      0.0553
         7        -0.0468      0.0729     -0.0031      0.0075      0.0158
         8         0.0669      0.0546     -0.0128      0.0076      0.0160
         9        -0.0667     -0.1025     -0.1015      0.0253      0.0518
        10        -0.0249     -0.0239      0.0253      0.0018      0.0037
        11         0.0108     -0.0073      0.0298      0.0011      0.0021
        12        -0.1267      0.0088     -0.0150      0.0163      0.0303
        13         0.0747     -0.1095     -0.0022      0.0176      0.0323
        14        -0.0127     -0.0005      0.0557      0.0033      0.0060
        15         0.0997      0.0161      0.0378      0.0116      0.0211
        16         0.1154      0.0104     -0.0127      0.0136      0.0242
 Ground to excited state transition magnetic dipole moments (Au):
       state          X           Y           Z
         1         0.6590     -0.3455     -0.3116
         2        -0.0049      0.0041      0.2511
         3        -0.0573      0.2948     -0.0678
         4         0.4023     -0.0372      0.0700
         5        -0.2884      0.0699     -0.4678
         6         0.2288     -0.3962      0.7550
         7        -0.5476     -0.7167     -0.4497
         8        -0.2095      0.0404      0.2023
         9         0.0695      0.2284     -0.1422
        10         0.2996     -0.2329     -0.2047
        11        -0.0098      0.1763      0.2080
        12         0.2846      0.4644      0.3203
        13        -0.1563      0.1954      0.0378
        14         0.2104      0.2481     -0.3520
        15        -0.0300      0.6860      0.6595
        16         0.1669      0.0891      0.1196
 Ground to excited state transition velocity quadrupole moments (Au):
       state          XX          YY          ZZ          XY          XZ          YZ
         1        -0.0021     -0.0103      0.0276     -0.0617      0.0327      0.0002
         2        -0.0046      0.1495     -0.0846     -0.0142      0.0415     -0.0212
         3        -0.5186      0.1145      0.0375      0.1985      0.1467     -0.0292
         4         0.0094     -0.0576     -0.0964      0.1320      0.0743      0.0983
         5         0.1324     -0.2932      0.2261     -0.0479     -0.0041      0.0463
         6         0.0924      0.2083      0.0072      0.6782      0.3934      0.0229
         7         0.1492      0.1285     -0.1975     -0.0754      0.2316     -0.0019
         8        -0.2360      0.1430     -0.0076      0.0601      0.1627      0.1056
         9         0.0595      0.1830     -0.1595     -0.0903     -0.2504     -0.0708
        10        -0.1118     -0.1290      0.2184     -0.1038      0.2272      0.0671
        11        -0.0702     -0.0144      0.0704     -0.1068     -0.1759     -0.1319
        12         0.0048     -0.0669      0.1627     -0.2734      0.0496     -0.1215
        13        -0.2530     -0.0187      0.0851     -0.2073     -0.1599      0.0741
        14         0.0361     -0.0390     -0.1250      0.0114     -0.2162     -0.1824
        15        -0.6228     -0.0726      0.2262     -0.1983      0.0184      0.1610
        16         0.2061     -0.1091     -0.0264     -0.0893     -0.0626      0.1645
 <0|del|b> * <b|rxdel|0> + <0|del|b> * <b|delr+rdel|0>
 Rotatory Strengths (R) in cgs (10**-40 erg-esu-cm/Gauss)
       state          XX          YY          ZZ    R(velocity)    E-M Angle
         1         0.1089      6.8818     -7.5412     -0.1835       90.54
         2        -5.7511     -8.7953     -1.2378     -5.2614      123.60
         3        12.8882     -8.8680     16.1656      6.7286       73.85
         4        -9.6790     -6.6931     -4.0585     -6.8102      121.98
         5         2.0864     11.9312     31.6792     15.2323       72.65
         6       136.7896      3.3578     -6.9663     44.3937       65.62
         7       -75.5087     30.0617    -10.9790    -18.8087      106.78
         8       -11.1779     -9.7726    -11.1211    -10.6905      124.12
         9       -27.6887      5.8253     -7.7181     -9.8605      107.94
        10         3.4202    -12.4673     -6.0331     -5.0267      112.52
        11         0.4753      8.2963      1.3842      3.3853       57.18
        12         2.9106    -29.0137    -46.0319    -24.0450      117.05
        13       -37.5453     -6.5257    -20.5716    -21.5475      171.25
        14       -18.5788    -19.9516     -4.8324    -14.4543      144.84
        15        27.1469     43.8017     -7.4111     21.1792       71.27
        16         1.1335     33.6932      0.5297     11.7855       44.28
 1/2[<0|r|b>*<b|rxdel|0> + (<0|rxdel|b>*<b|r|0>)*]
 Rotatory Strengths (R) in cgs (10**-40 erg-esu-cm/Gauss)
       state          XX          YY          ZZ     R(length)
         1       -10.7173    -18.7894     12.0923     -5.8048
         2        -0.1690     -0.0044     -4.8336     -1.6690
         3        12.2912     28.8509     -8.7523     10.7966
         4       -13.4326     -2.6091     -0.6375     -5.5597
         5        32.7299     10.6408      0.6772     14.6827
         6       -14.5625    -93.3649    248.4270     46.8332
         7        58.5853   -108.0291     -8.0962    -19.1800
         8       -28.3565      5.4426      1.3702     -7.1812
         9       -10.6302    -49.1667     25.4941    -11.4343
        10       -15.5000     -2.4881     -2.2135     -6.7339
        11        -0.2236     -5.4910      7.2808      0.5221
        12       -76.0024     21.9123    -18.0449    -24.0450
        13       -21.4698    -39.0976     -1.3692    -20.6455
        14        -3.6312     -4.3440    -31.6774    -13.2176
        15        -4.8658     26.9962     34.6914     18.9406
        16        37.6110      1.5507     -1.9662     12.3985
  1/2[<0|del|b>*<b|r|0> + (<0|r|b>*<b|del|0>)*] (Au)
       state          X           Y           Z        Dip. S.   Osc.(frdel)
         1         0.0000     -0.0011     -0.0008      0.0018      0.0012
         2        -0.0009     -0.0000     -0.0005      0.0015      0.0010
         3        -0.0228     -0.0034     -0.0093      0.0356      0.0237
         4        -0.0007     -0.0025     -0.0003      0.0035      0.0023
         5        -0.0095     -0.0211      0.0000      0.0306      0.0204
         6        -0.0026     -0.0290     -0.0614      0.0930      0.0620
         7        -0.0071     -0.0155      0.0001      0.0225      0.0150
         8        -0.0128     -0.0104      0.0001      0.0231      0.0154
         9        -0.0144     -0.0312     -0.0257      0.0714      0.0476
        10        -0.0018      0.0004     -0.0004      0.0018      0.0012
        11        -0.0003     -0.0003     -0.0015      0.0021      0.0014
        12        -0.0478     -0.0006     -0.0012      0.0496      0.0331
        13        -0.0145     -0.0310     -0.0001      0.0456      0.0304
        14        -0.0003     -0.0000     -0.0071      0.0074      0.0049
        15        -0.0229     -0.0009     -0.0028      0.0266      0.0177
        16        -0.0368     -0.0003     -0.0003      0.0373      0.0249

 Excitation energies and oscillator strengths:
 
 Excited State   1:      Singlet-A      5.2472 eV  236.29 nm  f=0.0012  <S**2>=0.000
      23 -> 25        -0.24652
      24 -> 25         0.65733
 This state for optimization and/or second-order correction.
 Total Energy, E(TD-HF/TD-DFT) =  -343.399274566    
 Copying the excited state density for this state as the 1-particle RhoCI density.
 
 Excited State   2:      Singlet-A      6.1161 eV  202.72 nm  f=0.0005  <S**2>=0.000
      23 -> 25         0.65738
      24 -> 25         0.24912
 
 Excited State   3:      Singlet-A      7.6965 eV  161.09 nm  f=0.0273  <S**2>=0.000
      21 -> 25        -0.18506
      22 -> 25         0.49275
      23 -> 26         0.12628
      24 -> 26        -0.41788
      24 -> 27        -0.11326
 
 Excited State   4:      Singlet-A      7.8353 eV  158.24 nm  f=0.0024  <S**2>=0.000
      20 -> 25        -0.11041
      21 -> 25         0.66550
      22 -> 25         0.10077
      24 -> 26        -0.15968
 
 Excited State   5:      Singlet-A      7.9950 eV  155.08 nm  f=0.0141  <S**2>=0.000
      22 -> 25         0.16660
      23 -> 26         0.45340
      23 -> 27        -0.25253
      24 -> 26         0.33022
      24 -> 27        -0.27946
 
 Excited State   6:      Singlet-A      8.4591 eV  146.57 nm  f=0.0696  <S**2>=0.000
      20 -> 25        -0.15677
      22 -> 25         0.38395
      23 -> 26        -0.31097
      23 -> 27         0.18138
      24 -> 26         0.40698
 
 Excited State   7:      Singlet-A      8.6003 eV  144.16 nm  f=0.0145  <S**2>=0.000
      18 -> 25        -0.13728
      20 -> 25         0.64892
      21 -> 25         0.10680
 
 Excited State   8:      Singlet-A      8.6468 eV  143.39 nm  f=0.0155  <S**2>=0.000
      22 -> 26        -0.13004
      23 -> 26         0.33703
      24 -> 27         0.57947
 
 Excited State   9:      Singlet-A      8.8488 eV  140.11 nm  f=0.0442  <S**2>=0.000
      22 -> 25        -0.15195
      22 -> 26        -0.14610
      22 -> 27        -0.11007
      23 -> 26         0.20656
      23 -> 27         0.57429
      24 -> 27        -0.22808
 
 Excited State  10:      Singlet-A      9.0181 eV  137.48 nm  f=0.0013  <S**2>=0.000
      22 -> 26         0.60179
      22 -> 27         0.27069
      23 -> 27         0.18837
 
 Excited State  11:      Singlet-A      9.1169 eV  135.99 nm  f=0.0012  <S**2>=0.000
      19 -> 25         0.69452
 
 Excited State  12:      Singlet-A      9.8000 eV  126.51 nm  f=0.0368  <S**2>=0.000
      17 -> 25         0.29133
      18 -> 25         0.51188
      20 -> 25         0.13354
      21 -> 26         0.10373
      22 -> 26        -0.12938
      22 -> 27         0.24451
      24 -> 28        -0.13907
 
 Excited State  13:      Singlet-A      9.8679 eV  125.64 nm  f=0.0291  <S**2>=0.000
      17 -> 25        -0.16930
      18 -> 25        -0.23325
      21 -> 26         0.25880
      21 -> 27        -0.10124
      22 -> 26        -0.22817
      22 -> 27         0.50556
 
 Excited State  14:      Singlet-A      9.9396 eV  124.74 nm  f=0.0042  <S**2>=0.000
      18 -> 25         0.11471
      23 -> 28         0.21687
      23 -> 29         0.10914
      24 -> 28         0.58346
      24 -> 29         0.23354
 
 Excited State  15:      Singlet-A      9.9882 eV  124.13 nm  f=0.0150  <S**2>=0.000
      17 -> 25         0.17828
      21 -> 26         0.56269
      21 -> 27        -0.23104
      22 -> 26         0.10865
      22 -> 27        -0.26200
 
 Excited State  16:      Singlet-A     10.1638 eV  121.99 nm  f=0.0256  <S**2>=0.000
      16 -> 25         0.27558
      17 -> 25         0.47661
      18 -> 25        -0.21524
      21 -> 26        -0.13134
      24 -> 28         0.12035
      24 -> 29        -0.13636
      24 -> 30        -0.23721
 SavETr:  write IOETrn=   770 NScale= 10 NData=  16 NLR=1 NState=   16 LETran=     298.

 **********************************************************************

            Population analysis using the SCF Density.

 **********************************************************************

 Orbital symmetries:
       Occupied  (A) (A) (A) (A) (A) (A) (A) (A) (A) (A) (A) (A)
                 (A) (A) (A) (A) (A) (A) (A) (A) (A) (A) (A) (A)
       Virtual   (A) (A) (A) (A) (A) (A) (A) (A) (A) (A) (A) (A)
                 (A) (A) (A) (A) (A) (A) (A) (A) (A) (A) (A) (A)
                 (A) (A) (A) (A) (A) (A) (A) (A) (A) (A) (A) (A)
                 (A) (A) (A) (A) (A) (A) (A) (A) (A) (A) (A) (A)
                 (A) (A) (A) (A) (A) (A) (A) (A) (A) (A) (A) (A)
                 (A) (A) (A) (A) (A) (A) (A) (A) (A) (A) (A) (A)
                 (A) (A) (A) (A) (A) (A)
 The electronic state is 1-A.
 Alpha  occ. eigenvalues --  -19.19892 -19.15597 -19.14381 -10.32643 -10.26020
 Alpha  occ. eigenvalues --  -10.19034  -1.09474  -1.01610  -1.00692  -0.77730
 Alpha  occ. eigenvalues --   -0.67658  -0.60411  -0.52063  -0.48495  -0.47866
 Alpha  occ. eigenvalues --   -0.44130  -0.42349  -0.41224  -0.38828  -0.38208
 Alpha  occ. eigenvalues --   -0.34632  -0.31721  -0.28377  -0.27145
 Alpha virt. eigenvalues --   -0.01276   0.06057   0.07957   0.13318   0.14273
 Alpha virt. eigenvalues --    0.14885   0.17107   0.20175   0.21583   0.22880
 Alpha virt. eigenvalues --    0.31214   0.34004   0.51430   0.52864   0.56077
 Alpha virt. eigenvalues --    0.56531   0.60461   0.63018   0.64158   0.68579
 Alpha virt. eigenvalues --    0.74590   0.76556   0.78789   0.79694   0.86248
 Alpha virt. eigenvalues --    0.87479   0.89151   0.90707   0.91635   0.94543
 Alpha virt. eigenvalues --    0.96820   0.99357   1.01620   1.03346   1.07814
 Alpha virt. eigenvalues --    1.07986   1.24514   1.27912   1.33349   1.40064
 Alpha virt. eigenvalues --    1.43471   1.45794   1.49578   1.64070   1.66780
 Alpha virt. eigenvalues --    1.70364   1.73613   1.77904   1.79438   1.82568
 Alpha virt. eigenvalues --    1.83869   1.86186   1.87446   1.95022   2.00884
 Alpha virt. eigenvalues --    2.03251   2.13052   2.14653   2.22045   2.27503
 Alpha virt. eigenvalues --    2.32275   2.35362   2.39721   2.45997   2.50781
 Alpha virt. eigenvalues --    2.60544   2.64835   2.73460   2.80105   2.87517
 Alpha virt. eigenvalues --    2.96557   3.05190   3.69167   3.84820   4.10544
 Alpha virt. eigenvalues --    4.19768   4.33274   4.57845
          Condensed to atoms (all electrons):
               1          2          3          4          5          6
     1  C    4.912149   0.367405   0.229001  -0.018075   0.311531  -0.022567
     2  H    0.367405   0.609081  -0.030223  -0.005339  -0.055410   0.001747
     3  O    0.229001  -0.030223   8.279964   0.227577  -0.045581   0.003460
     4  H   -0.018075  -0.005339   0.227577   0.394407  -0.003699  -0.000126
     5  C    0.311531  -0.055410  -0.045581  -0.003699   5.213879   0.344305
     6  H   -0.022567   0.001747   0.003460  -0.000126   0.344305   0.570533
     7  H   -0.024123  -0.004622  -0.002010   0.003960   0.360506  -0.028392
     8  H   -0.024256   0.005209   0.002219  -0.000473   0.366882  -0.023681
     9  C    0.331639  -0.048108  -0.037628   0.005913  -0.029394  -0.000576
    10  O   -0.065385   0.002434  -0.000248  -0.000110   0.002340   0.000056
    11  O   -0.091326   0.003448   0.001700  -0.000119   0.001125   0.000223
    12  H    0.009302  -0.000274  -0.000290   0.000026  -0.000431  -0.000051
               7          8          9         10         11         12
     1  C   -0.024123  -0.024256   0.331639  -0.065385  -0.091326   0.009302
     2  H   -0.004622   0.005209  -0.048108   0.002434   0.003448  -0.000274
     3  O   -0.002010   0.002219  -0.037628  -0.000248   0.001700  -0.000290
     4  H    0.003960  -0.000473   0.005913  -0.000110  -0.000119   0.000026
     5  C    0.360506   0.366882  -0.029394   0.002340   0.001125  -0.000431
     6  H   -0.028392  -0.023681  -0.000576   0.000056   0.000223  -0.000051
     7  H    0.576016  -0.027700   0.003866  -0.000062   0.000160   0.000010
     8  H   -0.027700   0.519038  -0.009886   0.000044   0.006637  -0.000216
     9  C    0.003866  -0.009886   4.365942   0.563080   0.270194  -0.005714
    10  O   -0.000062   0.000044   0.563080   8.032865  -0.083314   0.008907
    11  O    0.000160   0.006637   0.270194  -0.083314   8.244072   0.217292
    12  H    0.000010  -0.000216  -0.005714   0.008907   0.217292   0.356478
 Mulliken charges:
               1
     1  C    0.084706
     2  H    0.154653
     3  O   -0.627942
     4  H    0.396059
     5  C   -0.466054
     6  H    0.155068
     7  H    0.142390
     8  H    0.186183
     9  C    0.590674
    10  O   -0.460608
    11  O   -0.570090
    12  H    0.414962
 Sum of Mulliken charges =  -0.00000
 Mulliken charges with hydrogens summed into heavy atoms:
               1
     1  C    0.239359
     3  O   -0.231883
     5  C    0.017587
     9  C    0.590674
    10  O   -0.460608
    11  O   -0.155128
 Electronic spatial extent (au):  <R**2>=            567.2169
 Charge=              0.0000 electrons
 Dipole moment (field-independent basis, Debye):
    X=             -1.9721    Y=              1.3775    Z=             -0.2770  Tot=              2.4215
 Quadrupole moment (field-independent basis, Debye-Ang):
   XX=            -29.7261   YY=            -35.5635   ZZ=            -36.2123
   XY=              6.1387   XZ=              4.5164   YZ=              0.1035
 Traceless Quadrupole moment (field-independent basis, Debye-Ang):
   XX=              4.1078   YY=             -1.7295   ZZ=             -2.3783
   XY=              6.1387   XZ=              4.5164   YZ=              0.1035
 Octapole moment (field-independent basis, Debye-Ang**2):
  XXX=             -3.0690  YYY=             -2.8440  ZZZ=              2.8953  XYY=             -1.4415
  XXY=              2.0569  XXZ=             12.6876  XZZ=              3.2088  YZZ=              1.3843
  YYZ=              1.6029  XYZ=              0.6983
 Hexadecapole moment (field-independent basis, Debye-Ang**3):
 XXXX=           -331.0330 YYYY=           -186.2348 ZZZZ=           -115.9144 XXXY=             49.1155
 XXXZ=             12.8424 YYYX=             18.2281 YYYZ=              1.9273 ZZZX=              1.2599
 ZZZY=              2.7690 XXYY=            -77.7912 XXZZ=            -76.8236 YYZZ=            -48.7238
 XXYZ=              0.8159 YYXZ=              0.7621 ZZXY=              6.6244
 N-N= 2.462326967315D+02 E-N=-1.297942784195D+03  KE= 3.403999965543D+02
 Unable to Open any file for archive entry.
 1\1\GINC-CCC143\SP\RB3LYP TD-FC\6-31G(d)\C3H6O3\ROOT\21-Feb-2025\0\\# 
 td=(nstat=16) b3lyp/6-31g(d)\\lactic_acid | No.2\\0,1\C,0,-0.655001,-0
 .291104,-0.374918\H,0,-0.710765,-0.876164,-1.300985\O,0,-1.078487,-1.1
 08546,0.764806\H,0,-1.995683,-1.418266,0.61968\C,0,-1.483022,0.987338,
 -0.475153\H,0,-1.134312,1.624325,-1.29582\H,0,-2.533673,0.738639,-0.66
 7128\H,0,-1.412237,1.548648,0.458456\C,0,0.823326,-0.049672,-0.123562\
 O,0,1.7399,-0.682196,-0.6497\O,0,1.046873,0.970752,0.770012\H,0,2.0085
 65,1.063362,0.946649\\Version=ES64L-G16RevC.02\State=1-A\HF=-343.59210
 65\RMSD=3.104e-09\PG=C01 [X(C3H6O3)]\\@
 The archive entry for this job was punched.


 QUHEN THE CAUSS IS TAKEN AWAY THE EFFECT WANISHETH.
 -- PROVERBS AND REASONS OF THE YEAR 1585
           AS REPRINTED IN PAISLEY MAGAZINE 1828.
 Job cpu time:       0 days  0 hours  3 minutes 53.5 seconds.
 Elapsed time:       0 days  0 hours  0 minutes 37.2 seconds.
 File lengths (MBytes):  RWF=    178 Int=      0 D2E=      0 Chk=      8 Scr=      1
 Normal termination of Gaussian 16 at Fri Feb 21 14:05:15 2025.
