 Entering Gaussian System, Link 0=/apl/gaussian/16c02/g16/._.g16
 Initial command:
 /apl/gaussian/16c02/g16/l1.exe "/lwork/users/ux8/8286874.ccpbs1/gaussian/Gau-790932.inp" -scrdir="/lwork/users/ux8/8286874.ccpbs1/gaussian/"
 Default CPUs for threads: 24,25,26,27,28,29,30,31
 Default is to use a total of   8 processors:
                                8 via shared-memory
                                1 via Linda
 Entering Link 1 = /apl/gaussian/16c02/g16/l1.exe PID=    790933.
  
 Copyright (c) 1988-2021, Gaussian, Inc.  All Rights Reserved.
  
 This is part of the Gaussian(R) 16 program.  It is based on
 the Gaussian(R) 09 system (copyright 2009, Gaussian, Inc.),
 the Gaussian(R) 03 system (copyright 2003, Gaussian, Inc.),
 the Gaussian(R) 98 system (copyright 1998, Gaussian, Inc.),
 the Gaussian(R) 94 system (copyright 1995, Gaussian, Inc.),
 the Gaussian 92(TM) system (copyright 1992, Gaussian, Inc.),
 the Gaussian 90(TM) system (copyright 1990, Gaussian, Inc.),
 the Gaussian 88(TM) system (copyright 1988, Gaussian, Inc.),
 the Gaussian 86(TM) system (copyright 1986, Carnegie Mellon
 University), and the Gaussian 82(TM) system (copyright 1983,
 Carnegie Mellon University). Gaussian is a federally registered
 trademark of Gaussian, Inc.
  
 This software contains proprietary and confidential information,
 including trade secrets, belonging to Gaussian, Inc.
  
 This software is provided under written license and may be
 used, copied, transmitted, or stored only in accord with that
 written license.
  
 The following legend is applicable only to US Government
 contracts under FAR:
  
                    RESTRICTED RIGHTS LEGEND
  
 Use, reproduction and disclosure by the US Government is
 subject to restrictions as set forth in subparagraphs (a)
 and (c) of the Commercial Computer Software - Restricted
 Rights clause in FAR 52.227-19.
  
 Gaussian, Inc.
 340 Quinnipiac St., Bldg. 40, Wallingford CT 06492
  
  
 ---------------------------------------------------------------
 Warning -- This program may not be used in any manner that
 competes with the business of Gaussian, Inc. or will provide
 assistance to any competitor of Gaussian, Inc.  The licensee
 of this program is prohibited from giving any competitor of
 Gaussian, Inc. access to this program.  By using this program,
 the user acknowledges that Gaussian, Inc. is engaged in the
 business of creating and licensing software in the field of
 computational chemistry and represents and warrants to the
 licensee that it is not a competitor of Gaussian, Inc. and that
 it will not use this program in any manner prohibited above.
 ---------------------------------------------------------------
  

 Cite this work as:
 Gaussian 16, Revision C.02,
 M. J. Frisch, G. W. Trucks, H. B. Schlegel, G. E. Scuseria, 
 M. A. Robb, J. R. Cheeseman, G. Scalmani, V. Barone, 
 G. A. Petersson, H. Nakatsuji, X. Li, M. Caricato, A. V. Marenich, 
 J. Bloino, B. G. Janesko, R. Gomperts, B. Mennucci, H. P. Hratchian, 
 J. V. Ortiz, A. F. Izmaylov, J. L. Sonnenberg, D. Williams-Young, 
 F. Ding, F. Lipparini, F. Egidi, J. Goings, B. Peng, A. Petrone, 
 T. Henderson, D. Ranasinghe, V. G. Zakrzewski, J. Gao, N. Rega, 
 G. Zheng, W. Liang, M. Hada, M. Ehara, K. Toyota, R. Fukuda, 
 J. Hasegawa, M. Ishida, T. Nakajima, Y. Honda, O. Kitao, H. Nakai, 
 T. Vreven, K. Throssell, J. A. Montgomery, Jr., J. E. Peralta, 
 F. Ogliaro, M. J. Bearpark, J. J. Heyd, E. N. Brothers, K. N. Kudin, 
 V. N. Staroverov, T. A. Keith, R. Kobayashi, J. Normand, 
 K. Raghavachari, A. P. Rendell, J. C. Burant, S. S. Iyengar, 
 J. Tomasi, M. Cossi, J. M. Millam, M. Klene, C. Adamo, R. Cammi, 
 J. W. Ochterski, R. L. Martin, K. Morokuma, O. Farkas, 
 J. B. Foresman, and D. J. Fox, Gaussian, Inc., Wallingford CT, 2019.
 
 ******************************************
 Gaussian 16:  ES64L-G16RevC.02  7-Dec-2021
                21-Feb-2025 
 ******************************************
 %chk=lactic_acid.017.tddft.chk
 %mem=9600MB
 SetSPE:  set environment variable "OMP_PROC_BIND" = "true"
 SetSPE:  set environment variable "OMP_PLACES" = "{24},{25},{26},{27},{28},{29},{30},{31}"
 ------------------------------
 # td=(nstat=16) b3lyp/6-31g(d)
 ------------------------------
 1/38=1,172=1/1;
 2/12=2,17=6,18=5,40=1/2;
 3/5=1,6=6,7=1,11=9,25=1,30=1,74=-5/1,2,3,8;
 4//1;
 5/5=2,38=5/2;
 8/6=1,10=2,108=16/1;
 9/41=16,42=1,70=2/14;
 6/7=2,8=2,9=2,10=2/1;
 99/5=1,9=1/99;
 -------------------
 lactic_acid | No.17
 -------------------
 Symbolic Z-matrix:
 Charge =  0 Multiplicity = 1
 C                    -0.64847  -0.22487  -0.36659 
 H                    -0.62982  -0.61038  -1.39577 
 O                    -0.9358   -1.31413   0.56651 
 H                    -1.73582  -1.79403   0.27276 
 C                    -1.64895   0.91517  -0.22698 
 H                    -1.40672   1.73766  -0.90772 
 H                    -2.65903   0.561    -0.46136 
 H                    -1.63402   1.30103   0.79498 
 C                     0.76535   0.21401  -0.02389 
 O                     1.08406   1.29195   0.48137 
 O                     1.68559  -0.7471   -0.3614 
 H                     2.58703  -0.46692  -0.08995 
 
                          Input orientation:                          
 ---------------------------------------------------------------------
 Center     Atomic      Atomic             Coordinates (Angstroms)
 Number     Number       Type             X           Y           Z
 ---------------------------------------------------------------------
      1          6           0       -0.648466   -0.224871   -0.366587
      2          1           0       -0.629824   -0.610383   -1.395769
      3          8           0       -0.935803   -1.314129    0.566505
      4          1           0       -1.735822   -1.794031    0.272759
      5          6           0       -1.648950    0.915171   -0.226977
      6          1           0       -1.406721    1.737662   -0.907719
      7          1           0       -2.659030    0.560997   -0.461362
      8          1           0       -1.634018    1.301030    0.794984
      9          6           0        0.765352    0.214006   -0.023889
     10          8           0        1.084060    1.291954    0.481370
     11          8           0        1.685589   -0.747099   -0.361403
     12          1           0        2.587025   -0.466922   -0.089951
 ---------------------------------------------------------------------
                    Distance matrix (angstroms):
                    1          2          3          4          5
     1  C    0.000000
     2  H    1.099174   0.000000
     3  O    1.462773   2.106989   0.000000
     4  H    2.013298   2.325562   0.978071   0.000000
     5  C    1.523205   2.175318   2.471431   2.756276   0.000000
     6  H    2.172397   2.520928   3.421773   3.738274   1.094795
     7  H    2.160773   2.522484   2.746292   2.633895   1.095736
     8  H    2.156139   3.075923   2.716388   3.140459   1.092481
     9  C    1.519518   2.123249   2.361713   3.221193   2.522247
    10  O    2.453861   3.174891   3.298297   4.185517   2.848344
    11  O    2.391770   2.539634   2.837998   3.633770   3.728319
    12  H    3.256304   3.474746   3.682256   4.536495   4.457852
                    6          7          8          9         10
     6  H    0.000000
     7  H    1.775402   0.000000
     8  H    1.772430   1.782331   0.000000
     9  C    2.796531   3.469608   2.758469   0.000000
    10  O    2.886557   3.928583   2.736126   1.232410   0.000000
    11  O    4.004358   4.538372   4.068397   1.372762   2.286884
    12  H    4.634538   5.358699   4.661112   1.945898   2.383056
                   11         12
    11  O    0.000000
    12  H    0.982228   0.000000
 Stoichiometry    C3H6O3
 Framework group  C1[X(C3H6O3)]
 Deg. of freedom    30
 Full point group                 C1      NOp   1
 Largest Abelian subgroup         C1      NOp   1
 Largest concise Abelian subgroup C1      NOp   1
                         Standard orientation:                         
 ---------------------------------------------------------------------
 Center     Atomic      Atomic             Coordinates (Angstroms)
 Number     Number       Type             X           Y           Z
 ---------------------------------------------------------------------
      1          6           0        0.648466   -0.224871    0.366587
      2          1           0        0.629824   -0.610383    1.395769
      3          8           0        0.935803   -1.314129   -0.566505
      4          1           0        1.735821   -1.794031   -0.272759
      5          6           0        1.648950    0.915171    0.226977
      6          1           0        1.406721    1.737662    0.907719
      7          1           0        2.659030    0.560996    0.461362
      8          1           0        1.634018    1.301030   -0.794984
      9          6           0       -0.765352    0.214006    0.023889
     10          8           0       -1.084060    1.291954   -0.481370
     11          8           0       -1.685589   -0.747098    0.361403
     12          1           0       -2.587025   -0.466921    0.089951
 ---------------------------------------------------------------------
 Rotational constants (GHZ):           5.0555332           3.1252824           2.2166504
 Standard basis: 6-31G(d) (6D, 7F)
 There are   102 symmetry adapted cartesian basis functions of A   symmetry.
 There are   102 symmetry adapted basis functions of A   symmetry.
   102 basis functions,   192 primitive gaussians,   102 cartesian basis functions
    24 alpha electrons       24 beta electrons
       nuclear repulsion energy       246.0357817365 Hartrees.
 NAtoms=   12 NActive=   12 NUniq=   12 SFac= 1.00D+00 NAtFMM=   60 NAOKFM=F Big=F
 Integral buffers will be    131072 words long.
 Regular integral format.
 Two-electron integral symmetry is turned on.
 One-electron integrals computed using PRISM.
 NBasis=   102 RedAO= T EigKep=  3.22D-03  NBF=   102
 NBsUse=   102 1.00D-06 EigRej= -1.00D+00 NBFU=   102
 ExpMin= 1.61D-01 ExpMax= 5.48D+03 ExpMxC= 8.25D+02 IAcc=3 IRadAn=         5 AccDes= 0.00D+00
 Harris functional with IExCor=  402 and IRadAn=       5 diagonalized for initial guess.
 HarFok:  IExCor=  402 AccDes= 0.00D+00 IRadAn=         5 IDoV= 1 UseB2=F ITyADJ=14
 ICtDFT=  3500011 ScaDFX=  1.000000  1.000000  1.000000  1.000000
 FoFCou: FMM=F IPFlag=           0 FMFlag=      100000 FMFlg1=           0
         NFxFlg=           0 DoJE=T BraDBF=F KetDBF=T FulRan=T
         wScrn=  0.000000 ICntrl=       500 IOpCl=  0 I1Cent=   200000004 NGrid=           0
         NMat0=    1 NMatS0=      1 NMatT0=    0 NMatD0=    1 NMtDS0=    0 NMtDT0=    0
 Petite list used in FoFCou.
 Keep R1 ints in memory in canonical form, NReq=21214305.
 Requested convergence on RMS density matrix=1.00D-08 within 128 cycles.
 Requested convergence on MAX density matrix=1.00D-06.
 Requested convergence on             energy=1.00D-06.
 No special actions if energy rises.
 Integral accuracy reduced to 1.0D-05 until final iterations.
 Initial convergence to 1.0D-05 achieved.  Increase integral accuracy.
 SCF Done:  E(RB3LYP) =  -343.593497013     A.U. after   14 cycles
            NFock= 14  Conv=0.30D-08     -V/T= 2.0094
 DoSCS=F DFT=T ScalE2(SS,OS)=  1.000000  1.000000
 ExpMin= 1.61D-01 ExpMax= 5.48D+03 ExpMxC= 8.25D+02 IAcc=3 IRadAn=         5 AccDes= 0.00D+00
 HarFok:  IExCor=  205 AccDes= 0.00D+00 IRadAn=         5 IDoV=-2 UseB2=F ITyADJ=14
 ICtDFT= 12500011 ScaDFX=  1.000000  1.000000  1.000000  1.000000
 Range of M.O.s used for correlation:     7   102
 NBasis=   102 NAE=    24 NBE=    24 NFC=     6 NFV=     0
 NROrb=     96 NOA=    18 NOB=    18 NVA=    78 NVB=    78
 Keep R1, R2, and R3 ints in memory in canonical form, NReq=75112043.
 Orbital symmetries:
       Occupied  (A) (A) (A) (A) (A) (A) (A) (A) (A) (A) (A) (A)
                 (A) (A) (A) (A) (A) (A) (A) (A) (A) (A) (A) (A)
       Virtual   (A) (A) (A) (A) (A) (A) (A) (A) (A) (A) (A) (A)
                 (A) (A) (A) (A) (A) (A) (A) (A) (A) (A) (A) (A)
                 (A) (A) (A) (A) (A) (A) (A) (A) (A) (A) (A) (A)
                 (A) (A) (A) (A) (A) (A) (A) (A) (A) (A) (A) (A)
                 (A) (A) (A) (A) (A) (A) (A) (A) (A) (A) (A) (A)
                 (A) (A) (A) (A) (A) (A) (A) (A) (A) (A) (A) (A)
                 (A) (A) (A) (A) (A) (A)
    64 initial guesses have been made.
 Convergence on wavefunction:    0.001000000000000
 Iteration     1 Dimension    64 NMult     0 NNew     64
 CISAX will form    64 AO SS matrices at one time.
 New state      3 was old state      4
 New state      4 was old state      5
 New state      5 was old state      8
 New state      6 was old state      9
 New state      8 was old state      6
 New state      9 was old state     10
 New state     10 was old state     11
 New state     11 was old state     13
 New state     13 was old state     15
 New state     15 was old state     18
 New state     16 was old state     17
 Iteration     2 Dimension    96 NMult    64 NNew     32
 New state      3 was old state      4
 New state      4 was old state      3
 New state      9 was old state     11
 New state     10 was old state      9
 New state     11 was old state     10
 New state     15 was old state     16
 New state     16 was old state     15
 Iteration     3 Dimension   128 NMult    96 NNew     32
 Iteration     4 Dimension   156 NMult   128 NNew     28
 Iteration     5 Dimension   158 NMult   156 NNew      2
 ***********************************************************************
 Excited states from <AA,BB:AA,BB> singles matrix:
 ***********************************************************************
 
 Ground to excited state transition densities written to RWF  633
 Ground to excited state transition electric dipole moments (Au):
       state          X           Y           Z        Dip. S.      Osc.
         1        -0.0012      0.0216      0.0560      0.0036      0.0005
         2         0.1629      0.0052      0.0358      0.0278      0.0041
         3         0.0818     -0.4042      0.2044      0.2119      0.0403
         4        -0.0967      0.1835     -0.0190      0.0434      0.0083
         5        -0.0059     -0.1181     -0.0393      0.0155      0.0031
         6        -0.3312     -0.3621      0.0862      0.2482      0.0519
         7        -0.1452     -0.2948     -0.0705      0.1129      0.0237
         8         0.1839      0.1393      0.0053      0.0532      0.0114
         9         0.3355      0.1291     -0.1449      0.1503      0.0323
        10         0.0227      0.1796     -0.1037      0.0435      0.0097
        11         0.0265     -0.0450     -0.0276      0.0035      0.0008
        12        -0.1102     -0.1478     -0.0180      0.0343      0.0079
        13        -0.0081      0.0421      0.2238      0.0519      0.0124
        14         0.1823     -0.0068      0.0952      0.0423      0.0103
        15        -0.1825     -0.1660      0.1072      0.0723      0.0177
        16        -0.0762      0.0837     -0.0296      0.0137      0.0034
 Ground to excited state transition velocity dipole moments (Au):
       state          X           Y           Z        Dip. S.      Osc.
         1         0.0036     -0.0059     -0.0133      0.0002      0.0008
         2        -0.0474     -0.0243      0.0049      0.0029      0.0086
         3        -0.0284      0.0992     -0.0524      0.0134      0.0313
         4         0.0177     -0.0559     -0.0115      0.0036      0.0083
         5         0.0282      0.0634     -0.0155      0.0051      0.0112
         6         0.0973      0.1115     -0.0304      0.0228      0.0485
         7         0.0447      0.0975      0.0358      0.0128      0.0271
         8        -0.0647     -0.0588     -0.0146      0.0079      0.0163
         9        -0.1104     -0.0314      0.0444      0.0151      0.0313
        10        -0.0111     -0.0593      0.0370      0.0050      0.0100
        11        -0.0155      0.0303      0.0430      0.0030      0.0060
        12         0.0373      0.0490      0.0082      0.0039      0.0074
        13         0.0203      0.0015     -0.0897      0.0085      0.0158
        14        -0.0643      0.0041     -0.0362      0.0055      0.0100
        15         0.0678      0.0523     -0.0471      0.0096      0.0174
        16         0.0387     -0.0197      0.0218      0.0024      0.0042
 Ground to excited state transition magnetic dipole moments (Au):
       state          X           Y           Z
         1        -0.2800      0.6937     -0.2728
         2        -0.1449     -0.1306     -0.1750
         3        -0.1250     -0.0403      0.0154
         4        -0.1273      0.2286     -0.1584
         5         0.4299      0.0471      0.6288
         6         0.4236      0.1614     -0.7725
         7        -0.9334     -0.4167      0.0020
         8         0.1542     -0.1597      0.1660
         9         0.0058      0.4092      0.0366
        10         0.0836      0.0451      0.2447
        11        -0.1397      0.2445     -0.1925
        12         0.5539      0.2426      0.0877
        13        -0.0401      0.0734      0.1065
        14         0.0988      0.3487      0.1974
        15        -0.0274      0.0172     -0.0734
        16        -0.1370     -0.1913      0.1952
 Ground to excited state transition velocity quadrupole moments (Au):
       state          XX          YY          ZZ          XY          XZ          YZ
         1         0.0382      0.0124     -0.0329     -0.0406     -0.0257      0.0038
         2        -0.0343      0.1393     -0.1086      0.0241      0.0188     -0.0183
         3        -0.1364      0.1608      0.0504     -0.3781      0.1632     -0.0916
         4        -0.2554     -0.0600      0.2266      0.0959     -0.0816      0.0522
         5         0.3023     -0.3802      0.1789      0.0285     -0.1274      0.1097
         6        -0.7086      0.1370      0.0756     -0.2550      0.1715     -0.0414
         7        -0.1348     -0.1853      0.1099      0.0472      0.1125     -0.2200
         8        -0.0075      0.0516     -0.0291      0.1247      0.1019      0.0331
         9         0.2581     -0.2473      0.0929      0.4785     -0.1199     -0.0187
        10        -0.0472      0.0353      0.0101     -0.0568      0.0664     -0.1161
        11         0.0256     -0.0503      0.0733     -0.2353     -0.2530     -0.0891
        12         0.0230      0.0661     -0.0832      0.0689     -0.0344      0.1113
        13         0.2012     -0.0127     -0.3355     -0.1386     -0.1433      0.1672
        14         0.2000     -0.1412     -0.2365      0.0672     -0.0851      0.1668
        15        -0.3202      0.0432      0.0474     -0.2446      0.1428      0.0554
        16         0.2455      0.0491     -0.1527     -0.2921     -0.0957     -0.0045
 <0|del|b> * <b|rxdel|0> + <0|del|b> * <b|delr+rdel|0>
 Rotatory Strengths (R) in cgs (10**-40 erg-esu-cm/Gauss)
       state          XX          YY          ZZ    R(velocity)    E-M Angle
         1        -0.2096      3.7730     -9.0832     -1.8399       97.31
         2         4.5737     10.7126     13.8314      9.7059       49.10
         3        -1.4659    -17.9512     16.2987     -1.0394       94.71
         4       -20.5553      1.9569    -14.0974    -10.8986      136.34
         5         1.0527      6.9886      4.6401      4.2272       84.30
         6        33.9127     59.6480     92.8704     62.1437       52.34
         7       -55.9574    -59.7349    -69.1154    -61.6026      135.39
         8        12.2664    -14.0060     -4.8827     -2.2074       97.03
         9         6.8399    -19.9459    -12.9361     -8.6807      103.59
        10         8.7003     12.1979     -9.3657      3.8442       72.97
        11        -3.5305      5.6952      0.5601      0.9083       86.05
        12        15.1948     25.5538     27.3347     22.6944       28.78
        13         3.1692    -19.2014     -4.2615     -6.7646      145.44
        14        -7.5866    -21.2071      5.3119     -7.8273      113.30
        15         8.1221     -5.9541      2.6623      1.6101       71.41
        16        -0.2066      4.8607      0.5058      1.7200       79.48
 1/2[<0|r|b>*<b|rxdel|0> + (<0|rxdel|b>*<b|r|0>)*]
 Rotatory Strengths (R) in cgs (10**-40 erg-esu-cm/Gauss)
       state          XX          YY          ZZ     R(length)
         1        -0.2460    -10.5832     10.8111     -0.0060
         2        16.6920      0.4819      4.4338      7.2026
         3         7.2317    -11.5158     -2.2272     -2.1704
         4        -8.7102    -29.6668     -2.1333    -13.5035
         5         1.7790      3.9320     17.4712      7.7274
         6        99.1939     41.3227     47.0761     62.5309
         7       -95.8235    -86.8649      0.0995    -60.8630
         8       -20.0439     15.7330     -0.6166     -1.6425
         9        -1.3713    -37.3756      3.7533    -11.6645
        10        -1.3455     -5.7317     17.9431      3.6220
        11         2.6209      7.7877     -3.7539      2.2182
        12        43.1432     25.3486      1.1141     23.2020
        13        -0.2286     -2.1858    -16.8522     -6.4222
        14       -12.7382      1.6783    -13.2944     -8.1181
        15        -3.5345      2.0177      5.5638      1.3490
        16        -7.3863     11.3203      4.0833      2.6724
  1/2[<0|del|b>*<b|r|0> + (<0|r|b>*<b|del|0>)*] (Au)
       state          X           Y           Z        Dip. S.   Osc.(frdel)
         1        -0.0000     -0.0001     -0.0007      0.0009      0.0006
         2        -0.0077     -0.0001      0.0002      0.0077      0.0051
         3        -0.0023     -0.0401     -0.0107      0.0531      0.0354
         4        -0.0017     -0.0103      0.0002      0.0118      0.0078
         5        -0.0002     -0.0075      0.0006      0.0070      0.0047
         6        -0.0322     -0.0404     -0.0026      0.0752      0.0501
         7        -0.0065     -0.0287     -0.0025      0.0378      0.0252
         8        -0.0119     -0.0082     -0.0001      0.0202      0.0134
         9        -0.0370     -0.0041     -0.0064      0.0475      0.0317
        10        -0.0003     -0.0106     -0.0038      0.0147      0.0098
        11        -0.0004     -0.0014     -0.0012      0.0030      0.0020
        12        -0.0041     -0.0072     -0.0001      0.0115      0.0077
        13        -0.0002      0.0001     -0.0201      0.0202      0.0134
        14        -0.0117     -0.0000     -0.0034      0.0152      0.0101
        15        -0.0124     -0.0087     -0.0050      0.0261      0.0174
        16        -0.0030     -0.0017     -0.0006      0.0052      0.0035

 Excitation energies and oscillator strengths:
 
 Excited State   1:      Singlet-A      5.2982 eV  234.01 nm  f=0.0005  <S**2>=0.000
      24 -> 25         0.69956
 This state for optimization and/or second-order correction.
 Total Energy, E(TD-HF/TD-DFT) =  -343.398792305    
 Copying the excited state density for this state as the 1-particle RhoCI density.
 
 Excited State   2:      Singlet-A      6.0590 eV  204.63 nm  f=0.0041  <S**2>=0.000
      23 -> 25         0.70375
 
 Excited State   3:      Singlet-A      7.7577 eV  159.82 nm  f=0.0403  <S**2>=0.000
      21 -> 25         0.13854
      22 -> 25         0.58026
      24 -> 26        -0.31990
      24 -> 27         0.15951
 
 Excited State   4:      Singlet-A      7.7832 eV  159.30 nm  f=0.0083  <S**2>=0.000
      21 -> 25         0.67632
      24 -> 26         0.10465
 
 Excited State   5:      Singlet-A      8.1812 eV  151.55 nm  f=0.0031  <S**2>=0.000
      23 -> 26         0.39566
      23 -> 27         0.56597
 
 Excited State   6:      Singlet-A      8.5327 eV  145.30 nm  f=0.0519  <S**2>=0.000
      20 -> 25        -0.20560
      22 -> 25         0.26061
      24 -> 26         0.56963
      24 -> 27         0.19014
 
 Excited State   7:      Singlet-A      8.5680 eV  144.71 nm  f=0.0237  <S**2>=0.000
      18 -> 25        -0.19384
      20 -> 25         0.61742
      21 -> 25        -0.12610
      24 -> 26         0.19604
 
 Excited State   8:      Singlet-A      8.7432 eV  141.81 nm  f=0.0114  <S**2>=0.000
      22 -> 26        -0.14431
      23 -> 26         0.54401
      23 -> 27        -0.36946
      24 -> 27         0.16739
 
 Excited State   9:      Singlet-A      8.7765 eV  141.27 nm  f=0.0323  <S**2>=0.000
      22 -> 25        -0.19618
      23 -> 26        -0.11882
      23 -> 27         0.13317
      24 -> 27         0.62736
 
 Excited State  10:      Singlet-A      9.0743 eV  136.63 nm  f=0.0097  <S**2>=0.000
      19 -> 25         0.68952
      20 -> 25         0.11286
 
 Excited State  11:      Singlet-A      9.1141 eV  136.03 nm  f=0.0008  <S**2>=0.000
      22 -> 26         0.62887
      22 -> 27        -0.24860
      23 -> 26         0.14927
 
 Excited State  12:      Singlet-A      9.3960 eV  131.95 nm  f=0.0079  <S**2>=0.000
      18 -> 25         0.66219
      20 -> 25         0.20460
 
 Excited State  13:      Singlet-A      9.7223 eV  127.53 nm  f=0.0124  <S**2>=0.000
      23 -> 28         0.65573
      24 -> 28        -0.18161
 
 Excited State  14:      Singlet-A      9.8825 eV  125.46 nm  f=0.0103  <S**2>=0.000
      17 -> 25         0.10355
      22 -> 26        -0.10217
      22 -> 27        -0.27838
      23 -> 28         0.17808
      24 -> 28         0.59840
 
 Excited State  15:      Singlet-A      9.9588 eV  124.50 nm  f=0.0177  <S**2>=0.000
      17 -> 25         0.19656
      22 -> 26         0.22114
      22 -> 27         0.57094
      24 -> 28         0.24377
 
 Excited State  16:      Singlet-A     10.1242 eV  122.46 nm  f=0.0034  <S**2>=0.000
      16 -> 25         0.67626
      21 -> 26         0.11218
      21 -> 27         0.11164
 SavETr:  write IOETrn=   770 NScale= 10 NData=  16 NLR=1 NState=   16 LETran=     298.

 **********************************************************************

            Population analysis using the SCF Density.

 **********************************************************************

 Orbital symmetries:
       Occupied  (A) (A) (A) (A) (A) (A) (A) (A) (A) (A) (A) (A)
                 (A) (A) (A) (A) (A) (A) (A) (A) (A) (A) (A) (A)
       Virtual   (A) (A) (A) (A) (A) (A) (A) (A) (A) (A) (A) (A)
                 (A) (A) (A) (A) (A) (A) (A) (A) (A) (A) (A) (A)
                 (A) (A) (A) (A) (A) (A) (A) (A) (A) (A) (A) (A)
                 (A) (A) (A) (A) (A) (A) (A) (A) (A) (A) (A) (A)
                 (A) (A) (A) (A) (A) (A) (A) (A) (A) (A) (A) (A)
                 (A) (A) (A) (A) (A) (A) (A) (A) (A) (A) (A) (A)
                 (A) (A) (A) (A) (A) (A)
 The electronic state is 1-A.
 Alpha  occ. eigenvalues --  -19.19703 -19.15572 -19.14543 -10.32646 -10.26068
 Alpha  occ. eigenvalues --  -10.18450  -1.09437  -1.01580  -1.00797  -0.77408
 Alpha  occ. eigenvalues --   -0.68190  -0.58625  -0.52830  -0.49970  -0.47502
 Alpha  occ. eigenvalues --   -0.43004  -0.42139  -0.40800  -0.38917  -0.37706
 Alpha  occ. eigenvalues --   -0.34584  -0.31704  -0.28055  -0.27636
 Alpha virt. eigenvalues --   -0.01404   0.06957   0.07745   0.12262   0.14474
 Alpha virt. eigenvalues --    0.15238   0.17009   0.22136   0.22512   0.22623
 Alpha virt. eigenvalues --    0.30892   0.33708   0.52688   0.53653   0.55856
 Alpha virt. eigenvalues --    0.57038   0.60930   0.62757   0.65775   0.67264
 Alpha virt. eigenvalues --    0.72757   0.77070   0.78530   0.81510   0.84946
 Alpha virt. eigenvalues --    0.87077   0.89329   0.89935   0.92659   0.95022
 Alpha virt. eigenvalues --    0.95297   0.99831   1.02340   1.05211   1.06503
 Alpha virt. eigenvalues --    1.10624   1.22499   1.25159   1.36698   1.39703
 Alpha virt. eigenvalues --    1.43357   1.46175   1.56759   1.60755   1.67152
 Alpha virt. eigenvalues --    1.70008   1.72961   1.76328   1.78713   1.81857
 Alpha virt. eigenvalues --    1.84455   1.86997   1.90400   1.96461   2.00910
 Alpha virt. eigenvalues --    2.02805   2.11947   2.15339   2.19342   2.26664
 Alpha virt. eigenvalues --    2.32891   2.37040   2.40225   2.44958   2.53967
 Alpha virt. eigenvalues --    2.56060   2.66514   2.68458   2.84076   2.88007
 Alpha virt. eigenvalues --    2.96997   3.07557   3.70174   3.84315   4.06465
 Alpha virt. eigenvalues --    4.23618   4.32682   4.56868
          Condensed to atoms (all electrons):
               1          2          3          4          5          6
     1  C    4.952842   0.347681   0.228519  -0.017590   0.345086  -0.020763
     2  H    0.347681   0.622595  -0.030469  -0.007213  -0.057006   0.001309
     3  O    0.228519  -0.030469   8.278979   0.228466  -0.046317   0.003443
     4  H   -0.017590  -0.007213   0.228466   0.393431  -0.001348  -0.000150
     5  C    0.345086  -0.057006  -0.046317  -0.001348   5.170360   0.344898
     6  H   -0.020763   0.001309   0.003443  -0.000150   0.344898   0.565170
     7  H   -0.027230  -0.003366  -0.000927   0.002647   0.358499  -0.028265
     8  H   -0.026801   0.005514   0.001897  -0.000544   0.370421  -0.023396
     9  C    0.306373  -0.032468  -0.041052   0.005438  -0.044082  -0.000595
    10  O   -0.079023   0.002459  -0.000136  -0.000080   0.003468   0.001101
    11  O   -0.091033   0.001492   0.003427  -0.000122   0.003366  -0.000027
    12  H    0.009411  -0.000505  -0.000274   0.000038  -0.000288  -0.000003
               7          8          9         10         11         12
     1  C   -0.027230  -0.026801   0.306373  -0.079023  -0.091033   0.009411
     2  H   -0.003366   0.005514  -0.032468   0.002459   0.001492  -0.000505
     3  O   -0.000927   0.001897  -0.041052  -0.000136   0.003427  -0.000274
     4  H    0.002647  -0.000544   0.005438  -0.000080  -0.000122   0.000038
     5  C    0.358499   0.370421  -0.044082   0.003468   0.003366  -0.000288
     6  H   -0.028265  -0.023396  -0.000595   0.001101  -0.000027  -0.000003
     7  H    0.584286  -0.028285   0.005371   0.000419  -0.000038   0.000003
     8  H   -0.028285   0.522318  -0.007560   0.005287   0.000061  -0.000008
     9  C    0.005371  -0.007560   4.373325   0.561524   0.283900  -0.006577
    10  O    0.000419   0.005287   0.561524   8.038873  -0.080642   0.008221
    11  O   -0.000038   0.000061   0.283900  -0.080642   8.232748   0.217718
    12  H    0.000003  -0.000008  -0.006577   0.008221   0.217718   0.358531
 Mulliken charges:
               1
     1  C    0.072528
     2  H    0.149978
     3  O   -0.625556
     4  H    0.397028
     5  C   -0.447057
     6  H    0.157278
     7  H    0.136886
     8  H    0.181098
     9  C    0.596404
    10  O   -0.461470
    11  O   -0.570849
    12  H    0.413733
 Sum of Mulliken charges =  -0.00000
 Mulliken charges with hydrogens summed into heavy atoms:
               1
     1  C    0.222506
     3  O   -0.228529
     5  C    0.028205
     9  C    0.596404
    10  O   -0.461470
    11  O   -0.157115
 Electronic spatial extent (au):  <R**2>=            573.3978
 Charge=             -0.0000 electrons
 Dipole moment (field-independent basis, Debye):
    X=              1.0499    Y=             -1.1015    Z=              1.7737  Tot=              2.3370
 Quadrupole moment (field-independent basis, Debye-Ang):
   XX=            -26.1321   YY=            -38.2483   ZZ=            -36.0038
   XY=             -0.4675   XZ=              0.8905   YZ=              0.5177
 Traceless Quadrupole moment (field-independent basis, Debye-Ang):
   XX=              7.3293   YY=             -4.7869   ZZ=             -2.5424
   XY=             -0.4675   XZ=              0.8905   YZ=              0.5177
 Octapole moment (field-independent basis, Debye-Ang**2):
  XXX=            -20.2119  YYY=            -10.6419  ZZZ=             -1.2152  XYY=              9.2318
  XXY=            -12.6219  XXZ=             -0.6639  XZZ=             -1.9223  YZZ=             -0.1350
  YYZ=              2.2034  XYZ=             -3.3774
 Hexadecapole moment (field-independent basis, Debye-Ang**3):
 XXXX=           -298.0187 YYYY=           -219.0871 ZZZZ=            -73.7606 XXXY=            -10.1931
 XXXZ=             -2.7831 YYYX=            -16.5979 YYYZ=              2.6645 ZZZX=             -1.6386
 ZZZY=             -1.7131 XXYY=            -92.6417 XXZZ=            -79.0975 YYZZ=            -49.9931
 XXYZ=              3.3485 YYXZ=             -2.3199 ZZXY=             -0.8752
 N-N= 2.460357817365D+02 E-N=-1.297598709512D+03  KE= 3.404008674401D+02
 Unable to Open any file for archive entry.
 1\1\GINC-CCC413\SP\RB3LYP TD-FC\6-31G(d)\C3H6O3\ROOT\21-Feb-2025\0\\# 
 td=(nstat=16) b3lyp/6-31g(d)\\lactic_acid | No.17\\0,1\C,0,-0.648466,-
 0.224871,-0.366587\H,0,-0.629824,-0.610383,-1.395769\O,0,-0.935803,-1.
 314129,0.566505\H,0,-1.735822,-1.794031,0.272759\C,0,-1.64895,0.915171
 ,-0.226977\H,0,-1.406721,1.737662,-0.907719\H,0,-2.65903,0.560997,-0.4
 61362\H,0,-1.634018,1.30103,0.794984\C,0,0.765352,0.214006,-0.023889\O
 ,0,1.08406,1.291954,0.48137\O,0,1.685589,-0.747099,-0.361403\H,0,2.587
 025,-0.466922,-0.089951\\Version=ES64L-G16RevC.02\State=1-A\HF=-343.59
 3497\RMSD=3.007e-09\PG=C01 [X(C3H6O3)]\\@
 The archive entry for this job was punched.


 SI MONUMENTUM REQUIRIS, CIRCUMSPICE
     -- FROM SIR CHRISTOPHER WREN'S TOMBSTONE
 Job cpu time:       0 days  0 hours  3 minutes 50.4 seconds.
 Elapsed time:       0 days  0 hours  0 minutes 35.8 seconds.
 File lengths (MBytes):  RWF=    178 Int=      0 D2E=      0 Chk=      8 Scr=      1
 Normal termination of Gaussian 16 at Fri Feb 21 14:05:24 2025.
