 Entering Gaussian System, Link 0=/apl/gaussian/16c02/g16/._.g16
 Initial command:
 /apl/gaussian/16c02/g16/l1.exe "/lwork/users/ux8/8286866.ccpbs1/gaussian/Gau-549428.inp" -scrdir="/lwork/users/ux8/8286866.ccpbs1/gaussian/"
 Default CPUs for threads: 80,81,82,83,84,85,86,87
 Default is to use a total of   8 processors:
                                8 via shared-memory
                                1 via Linda
 Entering Link 1 = /apl/gaussian/16c02/g16/l1.exe PID=    549431.
  
 Copyright (c) 1988-2021, Gaussian, Inc.  All Rights Reserved.
  
 This is part of the Gaussian(R) 16 program.  It is based on
 the Gaussian(R) 09 system (copyright 2009, Gaussian, Inc.),
 the Gaussian(R) 03 system (copyright 2003, Gaussian, Inc.),
 the Gaussian(R) 98 system (copyright 1998, Gaussian, Inc.),
 the Gaussian(R) 94 system (copyright 1995, Gaussian, Inc.),
 the Gaussian 92(TM) system (copyright 1992, Gaussian, Inc.),
 the Gaussian 90(TM) system (copyright 1990, Gaussian, Inc.),
 the Gaussian 88(TM) system (copyright 1988, Gaussian, Inc.),
 the Gaussian 86(TM) system (copyright 1986, Carnegie Mellon
 University), and the Gaussian 82(TM) system (copyright 1983,
 Carnegie Mellon University). Gaussian is a federally registered
 trademark of Gaussian, Inc.
  
 This software contains proprietary and confidential information,
 including trade secrets, belonging to Gaussian, Inc.
  
 This software is provided under written license and may be
 used, copied, transmitted, or stored only in accord with that
 written license.
  
 The following legend is applicable only to US Government
 contracts under FAR:
  
                    RESTRICTED RIGHTS LEGEND
  
 Use, reproduction and disclosure by the US Government is
 subject to restrictions as set forth in subparagraphs (a)
 and (c) of the Commercial Computer Software - Restricted
 Rights clause in FAR 52.227-19.
  
 Gaussian, Inc.
 340 Quinnipiac St., Bldg. 40, Wallingford CT 06492
  
  
 ---------------------------------------------------------------
 Warning -- This program may not be used in any manner that
 competes with the business of Gaussian, Inc. or will provide
 assistance to any competitor of Gaussian, Inc.  The licensee
 of this program is prohibited from giving any competitor of
 Gaussian, Inc. access to this program.  By using this program,
 the user acknowledges that Gaussian, Inc. is engaged in the
 business of creating and licensing software in the field of
 computational chemistry and represents and warrants to the
 licensee that it is not a competitor of Gaussian, Inc. and that
 it will not use this program in any manner prohibited above.
 ---------------------------------------------------------------
  

 Cite this work as:
 Gaussian 16, Revision C.02,
 M. J. Frisch, G. W. Trucks, H. B. Schlegel, G. E. Scuseria, 
 M. A. Robb, J. R. Cheeseman, G. Scalmani, V. Barone, 
 G. A. Petersson, H. Nakatsuji, X. Li, M. Caricato, A. V. Marenich, 
 J. Bloino, B. G. Janesko, R. Gomperts, B. Mennucci, H. P. Hratchian, 
 J. V. Ortiz, A. F. Izmaylov, J. L. Sonnenberg, D. Williams-Young, 
 F. Ding, F. Lipparini, F. Egidi, J. Goings, B. Peng, A. Petrone, 
 T. Henderson, D. Ranasinghe, V. G. Zakrzewski, J. Gao, N. Rega, 
 G. Zheng, W. Liang, M. Hada, M. Ehara, K. Toyota, R. Fukuda, 
 J. Hasegawa, M. Ishida, T. Nakajima, Y. Honda, O. Kitao, H. Nakai, 
 T. Vreven, K. Throssell, J. A. Montgomery, Jr., J. E. Peralta, 
 F. Ogliaro, M. J. Bearpark, J. J. Heyd, E. N. Brothers, K. N. Kudin, 
 V. N. Staroverov, T. A. Keith, R. Kobayashi, J. Normand, 
 K. Raghavachari, A. P. Rendell, J. C. Burant, S. S. Iyengar, 
 J. Tomasi, M. Cossi, J. M. Millam, M. Klene, C. Adamo, R. Cammi, 
 J. W. Ochterski, R. L. Martin, K. Morokuma, O. Farkas, 
 J. B. Foresman, and D. J. Fox, Gaussian, Inc., Wallingford CT, 2019.
 
 ******************************************
 Gaussian 16:  ES64L-G16RevC.02  7-Dec-2021
                21-Feb-2025 
 ******************************************
 %chk=lactic_acid.009.tddft.chk
 %mem=9600MB
 SetSPE:  set environment variable "OMP_PROC_BIND" = "true"
 SetSPE:  set environment variable "OMP_PLACES" = "{80},{81},{82},{83},{84},{85},{86},{87}"
 ------------------------------
 # td=(nstat=16) b3lyp/6-31g(d)
 ------------------------------
 1/38=1,172=1/1;
 2/12=2,17=6,18=5,40=1/2;
 3/5=1,6=6,7=1,11=9,25=1,30=1,74=-5/1,2,3,8;
 4//1;
 5/5=2,38=5/2;
 8/6=1,10=2,108=16/1;
 9/41=16,42=1,70=2/14;
 6/7=2,8=2,9=2,10=2/1;
 99/5=1,9=1/99;
 ------------------
 lactic_acid | No.9
 ------------------
 Symbolic Z-matrix:
 Charge =  0 Multiplicity = 1
 C                    -0.6781    0.08146  -0.40236 
 H                    -0.7783    0.41845  -1.44494 
 O                    -1.18476  -1.26398  -0.25107 
 H                    -2.15216  -1.26573  -0.39629 
 C                    -1.40048   1.07895   0.5193 
 H                    -0.96462   2.07724   0.42208 
 H                    -2.46164   1.13838   0.25042 
 H                    -1.32108   0.75145   1.56043 
 C                     0.80925   0.09741  -0.11244 
 O                     1.52091   1.0741   -0.37479 
 O                     1.29324  -1.02774   0.49232 
 H                     2.2586   -0.92573   0.6496 
 
                          Input orientation:                          
 ---------------------------------------------------------------------
 Center     Atomic      Atomic             Coordinates (Angstroms)
 Number     Number       Type             X           Y           Z
 ---------------------------------------------------------------------
      1          6           0       -0.678103    0.081456   -0.402358
      2          1           0       -0.778296    0.418448   -1.444943
      3          8           0       -1.184757   -1.263980   -0.251069
      4          1           0       -2.152158   -1.265728   -0.396286
      5          6           0       -1.400483    1.078954    0.519302
      6          1           0       -0.964616    2.077244    0.422084
      7          1           0       -2.461642    1.138384    0.250417
      8          1           0       -1.321076    0.751448    1.560434
      9          6           0        0.809250    0.097405   -0.112438
     10          8           0        1.520913    1.074097   -0.374790
     11          8           0        1.293244   -1.027735    0.492316
     12          1           0        2.258602   -0.925734    0.649600
 ---------------------------------------------------------------------
                    Distance matrix (angstroms):
                    1          2          3          4          5
     1  C    0.000000
     2  H    1.100266   0.000000
     3  O    1.445609   2.102643   0.000000
     4  H    1.996943   2.413219   0.978241   0.000000
     5  C    1.538276   2.163711   2.475752   2.626947   0.000000
     6  H    2.178294   2.504418   3.415461   3.640803   1.093624
     7  H    2.173528   2.495237   2.766456   2.508737   1.096307
     8  H    2.171372   3.072099   2.713315   2.930606   1.094313
     9  C    1.515430   2.097365   2.418399   3.272406   2.499091
    10  O    2.412834   2.619440   3.578067   4.355077   3.055156
    11  O    2.432479   3.183661   2.597869   3.566097   3.419800
    12  H    3.278000   3.926409   3.575239   4.545798   4.174285
                    6          7          8          9         10
     6  H    0.000000
     7  H    1.775391   0.000000
     8  H    1.783435   1.779538   0.000000
     9  C    2.711471   3.451671   2.786496   0.000000
    10  O    2.796277   4.031843   3.453418   1.236616   0.000000
    11  O    3.839760   4.341631   3.337819   1.365986   2.285039
    12  H    4.411210   5.167266   4.056680   1.930838   2.364928
                   11         12
    11  O    0.000000
    12  H    0.983391   0.000000
 Stoichiometry    C3H6O3
 Framework group  C1[X(C3H6O3)]
 Deg. of freedom    30
 Full point group                 C1      NOp   1
 Largest Abelian subgroup         C1      NOp   1
 Largest concise Abelian subgroup C1      NOp   1
                         Standard orientation:                         
 ---------------------------------------------------------------------
 Center     Atomic      Atomic             Coordinates (Angstroms)
 Number     Number       Type             X           Y           Z
 ---------------------------------------------------------------------
      1          6           0       -0.678103    0.081456   -0.402358
      2          1           0       -0.778296    0.418448   -1.444943
      3          8           0       -1.184756   -1.263981   -0.251069
      4          1           0       -2.152157   -1.265729   -0.396286
      5          6           0       -1.400483    1.078953    0.519302
      6          1           0       -0.964617    2.077243    0.422084
      7          1           0       -2.461642    1.138383    0.250417
      8          1           0       -1.321076    0.751447    1.560434
      9          6           0        0.809250    0.097405   -0.112438
     10          8           0        1.520913    1.074097   -0.374790
     11          8           0        1.293244   -1.027735    0.492316
     12          1           0        2.258602   -0.925733    0.649600
 ---------------------------------------------------------------------
 Rotational constants (GHZ):           4.9940675           3.1518822           2.2366887
 Standard basis: 6-31G(d) (6D, 7F)
 There are   102 symmetry adapted cartesian basis functions of A   symmetry.
 There are   102 symmetry adapted basis functions of A   symmetry.
   102 basis functions,   192 primitive gaussians,   102 cartesian basis functions
    24 alpha electrons       24 beta electrons
       nuclear repulsion energy       246.4410385276 Hartrees.
 NAtoms=   12 NActive=   12 NUniq=   12 SFac= 1.00D+00 NAtFMM=   60 NAOKFM=F Big=F
 Integral buffers will be    131072 words long.
 Regular integral format.
 Two-electron integral symmetry is turned on.
 One-electron integrals computed using PRISM.
 NBasis=   102 RedAO= T EigKep=  3.01D-03  NBF=   102
 NBsUse=   102 1.00D-06 EigRej= -1.00D+00 NBFU=   102
 ExpMin= 1.61D-01 ExpMax= 5.48D+03 ExpMxC= 8.25D+02 IAcc=3 IRadAn=         5 AccDes= 0.00D+00
 Harris functional with IExCor=  402 and IRadAn=       5 diagonalized for initial guess.
 HarFok:  IExCor=  402 AccDes= 0.00D+00 IRadAn=         5 IDoV= 1 UseB2=F ITyADJ=14
 ICtDFT=  3500011 ScaDFX=  1.000000  1.000000  1.000000  1.000000
 FoFCou: FMM=F IPFlag=           0 FMFlag=      100000 FMFlg1=           0
         NFxFlg=           0 DoJE=T BraDBF=F KetDBF=T FulRan=T
         wScrn=  0.000000 ICntrl=       500 IOpCl=  0 I1Cent=   200000004 NGrid=           0
         NMat0=    1 NMatS0=      1 NMatT0=    0 NMatD0=    1 NMtDS0=    0 NMtDT0=    0
 Petite list used in FoFCou.
 Keep R1 ints in memory in canonical form, NReq=21214305.
 Requested convergence on RMS density matrix=1.00D-08 within 128 cycles.
 Requested convergence on MAX density matrix=1.00D-06.
 Requested convergence on             energy=1.00D-06.
 No special actions if energy rises.
 Integral accuracy reduced to 1.0D-05 until final iterations.
 Initial convergence to 1.0D-05 achieved.  Increase integral accuracy.
 SCF Done:  E(RB3LYP) =  -343.594169177     A.U. after   14 cycles
            NFock= 14  Conv=0.29D-08     -V/T= 2.0094
 DoSCS=F DFT=T ScalE2(SS,OS)=  1.000000  1.000000
 ExpMin= 1.61D-01 ExpMax= 5.48D+03 ExpMxC= 8.25D+02 IAcc=3 IRadAn=         5 AccDes= 0.00D+00
 HarFok:  IExCor=  205 AccDes= 0.00D+00 IRadAn=         5 IDoV=-2 UseB2=F ITyADJ=14
 ICtDFT= 12500011 ScaDFX=  1.000000  1.000000  1.000000  1.000000
 Range of M.O.s used for correlation:     7   102
 NBasis=   102 NAE=    24 NBE=    24 NFC=     6 NFV=     0
 NROrb=     96 NOA=    18 NOB=    18 NVA=    78 NVB=    78
 Keep R1, R2, and R3 ints in memory in canonical form, NReq=75112043.
 Orbital symmetries:
       Occupied  (A) (A) (A) (A) (A) (A) (A) (A) (A) (A) (A) (A)
                 (A) (A) (A) (A) (A) (A) (A) (A) (A) (A) (A) (A)
       Virtual   (A) (A) (A) (A) (A) (A) (A) (A) (A) (A) (A) (A)
                 (A) (A) (A) (A) (A) (A) (A) (A) (A) (A) (A) (A)
                 (A) (A) (A) (A) (A) (A) (A) (A) (A) (A) (A) (A)
                 (A) (A) (A) (A) (A) (A) (A) (A) (A) (A) (A) (A)
                 (A) (A) (A) (A) (A) (A) (A) (A) (A) (A) (A) (A)
                 (A) (A) (A) (A) (A) (A) (A) (A) (A) (A) (A) (A)
                 (A) (A) (A) (A) (A) (A)
    64 initial guesses have been made.
 Convergence on wavefunction:    0.001000000000000
 Iteration     1 Dimension    64 NMult     0 NNew     64
 CISAX will form    64 AO SS matrices at one time.
 New state      3 was old state      5
 New state      5 was old state      6
 New state      6 was old state      7
 New state      7 was old state      8
 New state      8 was old state     10
 New state     10 was old state     11
 New state     11 was old state     12
 New state     12 was old state     16
 New state     13 was old state     14
 New state     14 was old state     15
 New state     15 was old state     19
 New state     16 was old state     13
 Iteration     2 Dimension    96 NMult    64 NNew     32
 New state      9 was old state     10
 New state     10 was old state      9
 New state     11 was old state     12
 New state     12 was old state     11
 New state     14 was old state     15
 New state     15 was old state     14
 Iteration     3 Dimension   128 NMult    96 NNew     32
 Iteration     4 Dimension   158 NMult   128 NNew     30
 Iteration     5 Dimension   160 NMult   158 NNew      2
 ***********************************************************************
 Excited states from <AA,BB:AA,BB> singles matrix:
 ***********************************************************************
 
 Ground to excited state transition densities written to RWF  633
 Ground to excited state transition electric dipole moments (Au):
       state          X           Y           Z        Dip. S.      Osc.
         1         0.0470     -0.0383     -0.0585      0.0071      0.0010
         2         0.3021     -0.0629      0.0249      0.0959      0.0153
         3        -0.0172     -0.0978     -0.0052      0.0099      0.0019
         4        -0.1800     -0.1065      0.0626      0.0476      0.0090
         5         0.1084     -0.0576     -0.1153      0.0284      0.0057
         6         0.3169      0.5141     -0.1589      0.3899      0.0808
         7        -0.1049      0.1202      0.0305      0.0264      0.0056
         8         0.0389      0.0264     -0.0082      0.0023      0.0005
         9        -0.3197      0.4821     -0.2978      0.4234      0.0912
        10        -0.0344     -0.0177     -0.0444      0.0035      0.0008
        11         0.3970     -0.1757      0.0136      0.1887      0.0439
        12         0.0493     -0.0057      0.0347      0.0037      0.0009
        13         0.1086     -0.1664     -0.0077      0.0395      0.0094
        14        -0.2876      0.2991     -0.0169      0.1725      0.0415
        15         0.2453     -0.0287     -0.0154      0.0612      0.0148
        16         0.3580      0.0118     -0.0115      0.1284      0.0315
 Ground to excited state transition velocity dipole moments (Au):
       state          X           Y           Z        Dip. S.      Osc.
         1        -0.0124      0.0097      0.0173      0.0005      0.0018
         2        -0.0671      0.0208     -0.0079      0.0050      0.0139
         3        -0.0014      0.0365      0.0493      0.0038      0.0089
         4         0.0476      0.0213     -0.0231      0.0033      0.0076
         5        -0.0322      0.0139      0.0428      0.0031      0.0068
         6        -0.1095     -0.1464      0.0444      0.0354      0.0759
         7         0.0391     -0.0483     -0.0450      0.0059      0.0123
         8        -0.0112     -0.0109     -0.0157      0.0005      0.0010
         9         0.0987     -0.1478      0.0984      0.0413      0.0851
        10         0.0065      0.0162      0.0370      0.0017      0.0034
        11        -0.1352      0.0562      0.0047      0.0215      0.0410
        12        -0.0150      0.0046     -0.0069      0.0003      0.0006
        13        -0.0509      0.0893     -0.0003      0.0106      0.0198
        14         0.1093     -0.1031      0.0170      0.0229      0.0422
        15        -0.0871      0.0176      0.0211      0.0083      0.0153
        16        -0.1258      0.0005      0.0032      0.0158      0.0287
 Ground to excited state transition magnetic dipole moments (Au):
       state          X           Y           Z
         1         0.5619      0.6326     -0.1726
         2         0.0107      0.0266      0.1407
         3        -0.3596      0.5012     -0.2619
         4         0.1166     -0.2610     -0.2120
         5        -0.1226      0.1251     -0.0154
         6        -0.0906     -0.1656     -0.5543
         7         0.7289     -0.4300      0.3032
         8        -0.5536      0.4693     -0.4248
         9         0.0361     -0.3443     -0.6073
        10        -0.2075     -0.1824     -0.0011
        11        -0.0682      0.3845     -0.1725
        12        -0.0674     -0.3166      0.3103
        13        -0.0101      0.0034     -0.9293
        14        -0.2836      0.3287      0.1899
        15         0.0658     -0.2091      0.0604
        16         0.3455      0.3611      0.2529
 Ground to excited state transition velocity quadrupole moments (Au):
       state          XX          YY          ZZ          XY          XZ          YZ
         1         0.0444      0.0247     -0.0445     -0.0467     -0.0164      0.0235
         2        -0.0515     -0.0161      0.1649     -0.2109      0.0341      0.0106
         3         0.1202     -0.0493     -0.0139      0.0105     -0.2461     -0.2814
         4         0.3480      0.0460     -0.0482      0.2934      0.0227      0.0694
         5         0.1559      0.0550     -0.1014     -0.0416     -0.1239      0.0427
         6         0.3285      0.0129     -0.0198     -0.3301      0.2655      0.0534
         7        -0.0917      0.1027     -0.0283     -0.0455      0.1179      0.1797
         8         0.1521     -0.0438      0.0720     -0.2434      0.0120     -0.0260
         9         0.1652     -0.0151      0.0451     -0.6921      0.2965     -0.0849
        10        -0.1384     -0.0799      0.1695      0.0572      0.1958     -0.0665
        11        -0.1756     -0.0052      0.2665     -0.0644     -0.1568      0.1247
        12        -0.0881     -0.0815      0.2061      0.1160      0.2085     -0.0249
        13         0.5495     -0.2355     -0.1149      0.0852      0.1227      0.0389
        14        -0.3870      0.0130     -0.0020      0.2107     -0.0080     -0.0969
        15         0.2832      0.0481     -0.3084     -0.1804     -0.0359      0.1038
        16        -0.0292      0.1348      0.1256     -0.0748     -0.0044      0.0422
 <0|del|b> * <b|rxdel|0> + <0|del|b> * <b|delr+rdel|0>
 Rotatory Strengths (R) in cgs (10**-40 erg-esu-cm/Gauss)
       state          XX          YY          ZZ    R(velocity)    E-M Angle
         1         4.3435    -16.4751     -1.2661     -4.4659      100.97
         2         0.5858     -6.1867      1.8477     -1.2511       97.20
         3        18.7209    -15.7081     11.8358      4.9495       81.73
         4        -9.8533     25.5278     -3.5156      4.0530       76.07
         5         1.2036      4.3287      6.2623      3.9315       58.87
         6        27.1214     -6.6957      1.2983      7.2413       85.03
         7        16.5130     21.9931     40.5958     26.3673       58.94
         8         6.0791     10.3014      0.7141      5.6982       65.45
         9       -36.2069      3.8507     20.8030     -3.8511       92.13
        10        -4.3597     -4.2506     -0.7573     -3.1225      112.65
        11        29.7040     -8.2562     39.3802     20.2760       61.31
        12        -5.3610      0.0518      0.1403     -1.7230      109.61
        13       -10.3004     -1.1238     13.6537      0.7432       89.33
        14       -27.3294    -41.0528    -52.3693    -40.2505      149.36
        15        -5.4405     -9.4546     -0.9812     -5.2921      113.09
        16         0.7470    -45.9178    -36.5286    -27.2331      127.02
 1/2[<0|r|b>*<b|rxdel|0> + (<0|rxdel|b>*<b|r|0>)*]
 Rotatory Strengths (R) in cgs (10**-40 erg-esu-cm/Gauss)
       state          XX          YY          ZZ     R(length)
         1       -18.6827     17.1477     -7.1364     -2.8905
         2        -2.2865      1.1838     -2.4752     -1.1926
         3        -4.3812     34.6558     -0.9595      9.7717
         4        14.8417    -19.6472      9.3849      1.5264
         5         9.4007      5.0942     -1.2559      4.4130
         6        20.2903     60.1937    -62.2901      6.0646
         7        54.0915     36.5412     -6.5468     28.0286
         8        15.2147     -8.7551     -2.4706      1.3297
         9         8.1575    117.4039   -127.8872     -0.7753
        10        -5.0422     -2.2856     -0.0357     -2.4545
        11        19.1381     47.7852      1.6638     22.8624
        12         2.3512     -1.2737     -7.6171     -2.1799
        13         0.7749      0.4021     -5.0775     -1.3002
        14       -57.6755    -69.5352      2.2743    -41.6455
        15       -11.4159     -4.2441      0.6565     -5.0012
        16       -87.4487     -3.0135      2.0578    -29.4682
  1/2[<0|del|b>*<b|r|0> + (<0|r|b>*<b|del|0>)*] (Au)
       state          X           Y           Z        Dip. S.   Osc.(frdel)
         1        -0.0006     -0.0004     -0.0010      0.0020      0.0013
         2        -0.0203     -0.0013     -0.0002      0.0218      0.0145
         3         0.0000     -0.0036     -0.0003      0.0038      0.0025
         4        -0.0086     -0.0023     -0.0014      0.0123      0.0082
         5        -0.0035     -0.0008     -0.0049      0.0092      0.0062
         6        -0.0347     -0.0753     -0.0071      0.1171      0.0780
         7        -0.0041     -0.0058     -0.0014      0.0113      0.0075
         8        -0.0004     -0.0003      0.0001      0.0006      0.0004
         9        -0.0316     -0.0712     -0.0293      0.1321      0.0881
        10        -0.0002     -0.0003     -0.0016      0.0022      0.0014
        11        -0.0537     -0.0099      0.0001      0.0635      0.0423
        12        -0.0007     -0.0000     -0.0002      0.0010      0.0007
        13        -0.0055     -0.0149      0.0000      0.0204      0.0136
        14        -0.0314     -0.0309     -0.0003      0.0626      0.0417
        15        -0.0214     -0.0005     -0.0003      0.0222      0.0148
        16        -0.0450      0.0000     -0.0000      0.0451      0.0300

 Excitation energies and oscillator strengths:
 
 Excited State   1:      Singlet-A      5.5206 eV  224.58 nm  f=0.0010  <S**2>=0.000
      23 -> 25        -0.14717
      24 -> 25         0.68827
 This state for optimization and/or second-order correction.
 Total Energy, E(TD-HF/TD-DFT) =  -343.391291119    
 Copying the excited state density for this state as the 1-particle RhoCI density.
 
 Excited State   2:      Singlet-A      6.5217 eV  190.11 nm  f=0.0153  <S**2>=0.000
      23 -> 25         0.68469
      24 -> 25         0.14579
 
 Excited State   3:      Singlet-A      7.6687 eV  161.68 nm  f=0.0019  <S**2>=0.000
      23 -> 26         0.60587
      23 -> 27        -0.20712
      24 -> 26         0.27183
 
 Excited State   4:      Singlet-A      7.7324 eV  160.34 nm  f=0.0090  <S**2>=0.000
      22 -> 25         0.42351
      23 -> 26        -0.25188
      24 -> 26         0.45652
      24 -> 27         0.20003
 
 Excited State   5:      Singlet-A      8.2145 eV  150.93 nm  f=0.0057  <S**2>=0.000
      21 -> 25         0.69660
 
 Excited State   6:      Singlet-A      8.4622 eV  146.52 nm  f=0.0808  <S**2>=0.000
      22 -> 25        -0.37248
      23 -> 26        -0.13068
      24 -> 26         0.44315
      24 -> 27        -0.34553
 
 Excited State   7:      Singlet-A      8.6555 eV  143.24 nm  f=0.0056  <S**2>=0.000
      18 -> 25        -0.12139
      20 -> 25        -0.41026
      22 -> 26        -0.25273
      22 -> 27        -0.12058
      23 -> 26         0.14739
      23 -> 27         0.41842
      24 -> 27         0.17074
 
 Excited State   8:      Singlet-A      8.6935 eV  142.62 nm  f=0.0005  <S**2>=0.000
      18 -> 25         0.14791
      20 -> 25         0.52796
      22 -> 26        -0.16019
      23 -> 26         0.11954
      23 -> 27         0.32667
      24 -> 27         0.16813
 
 Excited State   9:      Singlet-A      8.7946 eV  140.98 nm  f=0.0912  <S**2>=0.000
      22 -> 25        -0.35168
      23 -> 27        -0.24794
      24 -> 27         0.51645
 
 Excited State  10:      Singlet-A      8.9527 eV  138.49 nm  f=0.0008  <S**2>=0.000
      22 -> 26         0.55795
      22 -> 27         0.26621
      23 -> 27         0.31391
 
 Excited State  11:      Singlet-A      9.4983 eV  130.53 nm  f=0.0439  <S**2>=0.000
      18 -> 25         0.13295
      19 -> 25         0.67908
 
 Excited State  12:      Singlet-A      9.5942 eV  129.23 nm  f=0.0009  <S**2>=0.000
      22 -> 26        -0.29921
      22 -> 27         0.62153
 
 Excited State  13:      Singlet-A      9.6952 eV  127.88 nm  f=0.0094  <S**2>=0.000
      21 -> 26         0.65034
      21 -> 27        -0.14788
      24 -> 28         0.13264
 
 Excited State  14:      Singlet-A      9.8249 eV  126.19 nm  f=0.0415  <S**2>=0.000
      17 -> 25         0.11009
      18 -> 25         0.46426
      20 -> 25        -0.13778
      21 -> 26        -0.17279
      23 -> 28         0.32369
      23 -> 30         0.12885
      24 -> 28         0.28153
 
 Excited State  15:      Singlet-A      9.8671 eV  125.65 nm  f=0.0148  <S**2>=0.000
      17 -> 25        -0.10127
      18 -> 25        -0.33889
      23 -> 28         0.56304
      23 -> 30         0.13433
 
 Excited State  16:      Singlet-A      9.9966 eV  124.03 nm  f=0.0315  <S**2>=0.000
      17 -> 25        -0.24645
      18 -> 25        -0.20757
      19 -> 25         0.10394
      23 -> 28        -0.11750
      24 -> 28         0.58246
      24 -> 29        -0.10391
 SavETr:  write IOETrn=   770 NScale= 10 NData=  16 NLR=1 NState=   16 LETran=     298.

 **********************************************************************

            Population analysis using the SCF Density.

 **********************************************************************

 Orbital symmetries:
       Occupied  (A) (A) (A) (A) (A) (A) (A) (A) (A) (A) (A) (A)
                 (A) (A) (A) (A) (A) (A) (A) (A) (A) (A) (A) (A)
       Virtual   (A) (A) (A) (A) (A) (A) (A) (A) (A) (A) (A) (A)
                 (A) (A) (A) (A) (A) (A) (A) (A) (A) (A) (A) (A)
                 (A) (A) (A) (A) (A) (A) (A) (A) (A) (A) (A) (A)
                 (A) (A) (A) (A) (A) (A) (A) (A) (A) (A) (A) (A)
                 (A) (A) (A) (A) (A) (A) (A) (A) (A) (A) (A) (A)
                 (A) (A) (A) (A) (A) (A) (A) (A) (A) (A) (A) (A)
                 (A) (A) (A) (A) (A) (A)
 The electronic state is 1-A.
 Alpha  occ. eigenvalues --  -19.19744 -19.15415 -19.13910 -10.32561 -10.26247
 Alpha  occ. eigenvalues --  -10.19450  -1.09442  -1.01856  -1.00455  -0.77595
 Alpha  occ. eigenvalues --   -0.68076  -0.59818  -0.51824  -0.49502  -0.46855
 Alpha  occ. eigenvalues --   -0.46024  -0.42148  -0.40702  -0.38835  -0.37598
 Alpha  occ. eigenvalues --   -0.34545  -0.31431  -0.27834  -0.27376
 Alpha virt. eigenvalues --   -0.00159   0.05488   0.07936   0.12567   0.13916
 Alpha virt. eigenvalues --    0.15311   0.16937   0.18873   0.21789   0.25174
 Alpha virt. eigenvalues --    0.31037   0.37095   0.51183   0.53084   0.55941
 Alpha virt. eigenvalues --    0.58175   0.59363   0.61951   0.65023   0.69117
 Alpha virt. eigenvalues --    0.73615   0.76909   0.78693   0.80556   0.83793
 Alpha virt. eigenvalues --    0.87337   0.87963   0.90877   0.92945   0.94817
 Alpha virt. eigenvalues --    0.96596   0.98348   1.01532   1.05658   1.07459
 Alpha virt. eigenvalues --    1.08471   1.16255   1.32626   1.33250   1.39489
 Alpha virt. eigenvalues --    1.42777   1.49327   1.53203   1.62154   1.67658
 Alpha virt. eigenvalues --    1.71458   1.74888   1.76227   1.80040   1.82275
 Alpha virt. eigenvalues --    1.83245   1.88675   1.92596   1.95106   1.99484
 Alpha virt. eigenvalues --    2.05327   2.08029   2.12178   2.19727   2.25368
 Alpha virt. eigenvalues --    2.30855   2.32681   2.44074   2.48551   2.51952
 Alpha virt. eigenvalues --    2.58968   2.66980   2.68205   2.78679   2.86092
 Alpha virt. eigenvalues --    2.97671   3.07903   3.70517   3.91577   4.11269
 Alpha virt. eigenvalues --    4.16657   4.30173   4.59175
          Condensed to atoms (all electrons):
               1          2          3          4          5          6
     1  C    4.935080   0.376251   0.209778  -0.015250   0.346197  -0.023918
     2  H    0.376251   0.602558  -0.035970  -0.003299  -0.050882   0.002552
     3  O    0.209778  -0.035970   8.287131   0.224912  -0.041902   0.003500
     4  H   -0.015250  -0.003299   0.224912   0.394868  -0.004386  -0.000124
     5  C    0.346197  -0.050882  -0.041902  -0.004386   5.175649   0.344286
     6  H   -0.023918   0.002552   0.003500  -0.000124   0.344286   0.538909
     7  H   -0.030007  -0.006089  -0.001859   0.004097   0.369363  -0.026213
     8  H   -0.030662   0.005696   0.002421  -0.000457   0.368837  -0.022048
     9  C    0.300512  -0.055472  -0.032362   0.005657  -0.032893  -0.001422
    10  O   -0.071794   0.001580   0.001244  -0.000094  -0.002018   0.005837
    11  O   -0.081778   0.002307   0.002673   0.000020  -0.000663   0.000235
    12  H    0.009642  -0.000252  -0.000320   0.000022  -0.000263  -0.000028
               7          8          9         10         11         12
     1  C   -0.030007  -0.030662   0.300512  -0.071794  -0.081778   0.009642
     2  H   -0.006089   0.005696  -0.055472   0.001580   0.002307  -0.000252
     3  O   -0.001859   0.002421  -0.032362   0.001244   0.002673  -0.000320
     4  H    0.004097  -0.000457   0.005657  -0.000094   0.000020   0.000022
     5  C    0.369363   0.368837  -0.032893  -0.002018  -0.000663  -0.000263
     6  H   -0.026213  -0.022048  -0.001422   0.005837   0.000235  -0.000028
     7  H    0.569678  -0.030983   0.004975   0.000051  -0.000068   0.000008
     8  H   -0.030983   0.543264  -0.008137   0.000035   0.001294  -0.000080
     9  C    0.004975  -0.008137   4.421367   0.532615   0.291703  -0.006686
    10  O    0.000051   0.000035   0.532615   8.082420  -0.078787   0.008059
    11  O   -0.000068   0.001294   0.291703  -0.078787   8.196921   0.216800
    12  H    0.000008  -0.000080  -0.006686   0.008059   0.216800   0.360166
 Mulliken charges:
               1
     1  C    0.075948
     2  H    0.161020
     3  O   -0.619245
     4  H    0.394034
     5  C   -0.471325
     6  H    0.178433
     7  H    0.147047
     8  H    0.170820
     9  C    0.580143
    10  O   -0.479148
    11  O   -0.550657
    12  H    0.412932
 Sum of Mulliken charges =   0.00000
 Mulliken charges with hydrogens summed into heavy atoms:
               1
     1  C    0.236968
     3  O   -0.225212
     5  C    0.024975
     9  C    0.580143
    10  O   -0.479148
    11  O   -0.137726
 Electronic spatial extent (au):  <R**2>=            570.1543
 Charge=              0.0000 electrons
 Dipole moment (field-independent basis, Debye):
    X=             -1.7895    Y=             -0.0803    Z=              0.2764  Tot=              1.8125
 Quadrupole moment (field-independent basis, Debye-Ang):
   XX=            -27.1890   YY=            -39.8449   ZZ=            -34.2544
   XY=             -4.0933   XZ=              3.4676   YZ=              1.0824
 Traceless Quadrupole moment (field-independent basis, Debye-Ang):
   XX=              6.5737   YY=             -6.0821   ZZ=             -0.4916
   XY=             -4.0933   XZ=              3.4676   YZ=              1.0824
 Octapole moment (field-independent basis, Debye-Ang**2):
  XXX=              1.4997  YYY=             -3.0264  ZZZ=             -0.3798  XYY=             -2.4081
  XXY=            -18.3869  XXZ=              3.2726  XZZ=              2.1847  YZZ=             -1.9048
  YYZ=              0.9707  XYZ=             -0.6894
 Hexadecapole moment (field-independent basis, Debye-Ang**3):
 XXXX=           -295.4777 YYYY=           -231.3485 ZZZZ=            -77.2426 XXXY=             -2.9119
 XXXZ=             26.9228 YYYX=              3.1239 YYYZ=             -0.8762 ZZZX=              4.5076
 ZZZY=             -2.8010 XXYY=            -92.6525 XXZZ=            -71.1141 YYZZ=            -52.9256
 XXYZ=             -0.4250 YYXZ=              5.2094 ZZXY=              0.5219
 N-N= 2.464410385276D+02 E-N=-1.298376920312D+03  KE= 3.403953310869D+02
 Unable to Open any file for archive entry.
 1\1\GINC-CCC263\SP\RB3LYP TD-FC\6-31G(d)\C3H6O3\ROOT\21-Feb-2025\0\\# 
 td=(nstat=16) b3lyp/6-31g(d)\\lactic_acid | No.9\\0,1\C,0,-0.678103,0.
 081456,-0.402358\H,0,-0.778296,0.418448,-1.444943\O,0,-1.184757,-1.263
 98,-0.251069\H,0,-2.152158,-1.265728,-0.396286\C,0,-1.400483,1.078954,
 0.519302\H,0,-0.964616,2.077244,0.422084\H,0,-2.461642,1.138384,0.2504
 17\H,0,-1.321076,0.751448,1.560434\C,0,0.80925,0.097405,-0.112438\O,0,
 1.520913,1.074097,-0.37479\O,0,1.293244,-1.027735,0.492316\H,0,2.25860
 2,-0.925734,0.6496\\Version=ES64L-G16RevC.02\State=1-A\HF=-343.5941692
 \RMSD=2.864e-09\PG=C01 [X(C3H6O3)]\\@
 The archive entry for this job was punched.


 TO SEE A WORLD IN A GRAIN OF SAND
 AND A HEAVEN IN A WILD FLOWER
 HOLD INFINITY IN THE PALM OF YOUR HAND
 AND ETERNITY IN AN HOUR

                       -- WILLIAM BLAKE
 Job cpu time:       0 days  0 hours  3 minutes 22.3 seconds.
 Elapsed time:       0 days  0 hours  1 minutes 19.4 seconds.
 File lengths (MBytes):  RWF=    178 Int=      0 D2E=      0 Chk=      8 Scr=      1
 Normal termination of Gaussian 16 at Fri Feb 21 14:06:08 2025.
