 Entering Gaussian System, Link 0=/apl/gaussian/16c02/g16/._.g16
 Initial command:
 /apl/gaussian/16c02/g16/l1.exe "/lwork/users/ux8/8286870.ccpbs1/gaussian/Gau-1789046.inp" -scrdir="/lwork/users/ux8/8286870.ccpbs1/gaussian/"
 Default CPUs for threads: 40,41,42,43,44,45,46,47
 Default is to use a total of   8 processors:
                                8 via shared-memory
                                1 via Linda
 Entering Link 1 = /apl/gaussian/16c02/g16/l1.exe PID=   1789047.
  
 Copyright (c) 1988-2021, Gaussian, Inc.  All Rights Reserved.
  
 This is part of the Gaussian(R) 16 program.  It is based on
 the Gaussian(R) 09 system (copyright 2009, Gaussian, Inc.),
 the Gaussian(R) 03 system (copyright 2003, Gaussian, Inc.),
 the Gaussian(R) 98 system (copyright 1998, Gaussian, Inc.),
 the Gaussian(R) 94 system (copyright 1995, Gaussian, Inc.),
 the Gaussian 92(TM) system (copyright 1992, Gaussian, Inc.),
 the Gaussian 90(TM) system (copyright 1990, Gaussian, Inc.),
 the Gaussian 88(TM) system (copyright 1988, Gaussian, Inc.),
 the Gaussian 86(TM) system (copyright 1986, Carnegie Mellon
 University), and the Gaussian 82(TM) system (copyright 1983,
 Carnegie Mellon University). Gaussian is a federally registered
 trademark of Gaussian, Inc.
  
 This software contains proprietary and confidential information,
 including trade secrets, belonging to Gaussian, Inc.
  
 This software is provided under written license and may be
 used, copied, transmitted, or stored only in accord with that
 written license.
  
 The following legend is applicable only to US Government
 contracts under FAR:
  
                    RESTRICTED RIGHTS LEGEND
  
 Use, reproduction and disclosure by the US Government is
 subject to restrictions as set forth in subparagraphs (a)
 and (c) of the Commercial Computer Software - Restricted
 Rights clause in FAR 52.227-19.
  
 Gaussian, Inc.
 340 Quinnipiac St., Bldg. 40, Wallingford CT 06492
  
  
 ---------------------------------------------------------------
 Warning -- This program may not be used in any manner that
 competes with the business of Gaussian, Inc. or will provide
 assistance to any competitor of Gaussian, Inc.  The licensee
 of this program is prohibited from giving any competitor of
 Gaussian, Inc. access to this program.  By using this program,
 the user acknowledges that Gaussian, Inc. is engaged in the
 business of creating and licensing software in the field of
 computational chemistry and represents and warrants to the
 licensee that it is not a competitor of Gaussian, Inc. and that
 it will not use this program in any manner prohibited above.
 ---------------------------------------------------------------
  

 Cite this work as:
 Gaussian 16, Revision C.02,
 M. J. Frisch, G. W. Trucks, H. B. Schlegel, G. E. Scuseria, 
 M. A. Robb, J. R. Cheeseman, G. Scalmani, V. Barone, 
 G. A. Petersson, H. Nakatsuji, X. Li, M. Caricato, A. V. Marenich, 
 J. Bloino, B. G. Janesko, R. Gomperts, B. Mennucci, H. P. Hratchian, 
 J. V. Ortiz, A. F. Izmaylov, J. L. Sonnenberg, D. Williams-Young, 
 F. Ding, F. Lipparini, F. Egidi, J. Goings, B. Peng, A. Petrone, 
 T. Henderson, D. Ranasinghe, V. G. Zakrzewski, J. Gao, N. Rega, 
 G. Zheng, W. Liang, M. Hada, M. Ehara, K. Toyota, R. Fukuda, 
 J. Hasegawa, M. Ishida, T. Nakajima, Y. Honda, O. Kitao, H. Nakai, 
 T. Vreven, K. Throssell, J. A. Montgomery, Jr., J. E. Peralta, 
 F. Ogliaro, M. J. Bearpark, J. J. Heyd, E. N. Brothers, K. N. Kudin, 
 V. N. Staroverov, T. A. Keith, R. Kobayashi, J. Normand, 
 K. Raghavachari, A. P. Rendell, J. C. Burant, S. S. Iyengar, 
 J. Tomasi, M. Cossi, J. M. Millam, M. Klene, C. Adamo, R. Cammi, 
 J. W. Ochterski, R. L. Martin, K. Morokuma, O. Farkas, 
 J. B. Foresman, and D. J. Fox, Gaussian, Inc., Wallingford CT, 2019.
 
 ******************************************
 Gaussian 16:  ES64L-G16RevC.02  7-Dec-2021
                21-Feb-2025 
 ******************************************
 %chk=lactic_acid.013.tddft.chk
 %mem=9600MB
 SetSPE:  set environment variable "OMP_PROC_BIND" = "true"
 SetSPE:  set environment variable "OMP_PLACES" = "{40},{41},{42},{43},{44},{45},{46},{47}"
 ------------------------------
 # td=(nstat=16) b3lyp/6-31g(d)
 ------------------------------
 1/38=1,172=1/1;
 2/12=2,17=6,18=5,40=1/2;
 3/5=1,6=6,7=1,11=9,25=1,30=1,74=-5/1,2,3,8;
 4//1;
 5/5=2,38=5/2;
 8/6=1,10=2,108=16/1;
 9/41=16,42=1,70=2/14;
 6/7=2,8=2,9=2,10=2/1;
 99/5=1,9=1/99;
 -------------------
 lactic_acid | No.13
 -------------------
 Symbolic Z-matrix:
 Charge =  0 Multiplicity = 1
 C                    -0.67273  -0.09019  -0.37963 
 H                    -0.74301  -0.10252  -1.48116 
 O                    -1.02018  -1.3935    0.15353 
 H                    -1.93239  -1.62086  -0.11655 
 C                    -1.573     1.01421   0.17881 
 H                    -1.24494   1.99569  -0.17202 
 H                    -2.60907   0.85506  -0.14088 
 H                    -1.53816   1.00541   1.27213 
 C                     0.78635   0.18466  -0.06225 
 O                     1.26464   1.32234   0.01074 
 O                     1.5485   -0.94121   0.08 
 H                     2.48015  -0.68582   0.26279 
 
                          Input orientation:                          
 ---------------------------------------------------------------------
 Center     Atomic      Atomic             Coordinates (Angstroms)
 Number     Number       Type             X           Y           Z
 ---------------------------------------------------------------------
      1          6           0       -0.672730   -0.090192   -0.379628
      2          1           0       -0.743006   -0.102516   -1.481158
      3          8           0       -1.020179   -1.393495    0.153533
      4          1           0       -1.932386   -1.620860   -0.116551
      5          6           0       -1.573002    1.014207    0.178812
      6          1           0       -1.244942    1.995686   -0.172023
      7          1           0       -2.609065    0.855063   -0.140875
      8          1           0       -1.538161    1.005414    1.272128
      9          6           0        0.786347    0.184655   -0.062254
     10          8           0        1.264641    1.322335    0.010735
     11          8           0        1.548503   -0.941213    0.079996
     12          1           0        2.480145   -0.685817    0.262791
 ---------------------------------------------------------------------
                    Distance matrix (angstroms):
                    1          2          3          4          5
     1  C    0.000000
     2  H    1.103838   0.000000
     3  O    1.450372   2.101349   0.000000
     4  H    1.999722   2.362656   0.978142   0.000000
     5  C    1.530373   2.165979   2.470482   2.675813   0.000000
     6  H    2.172881   2.523534   3.412192   3.681720   1.092707
     7  H    2.167926   2.489075   2.768980   2.566843   1.095880
     8  H    2.162781   3.072518   2.697096   2.996858   1.093906
     9  C    1.518280   2.105867   2.408455   3.264099   2.512528
    10  O    2.429202   2.878644   3.551975   4.347365   2.859267
    11  O    2.422678   2.896831   2.609232   3.552061   3.684729
    12  H    3.272322   3.710836   3.572816   4.526437   4.396036
                    6          7          8          9         10
     6  H    0.000000
     7  H    1.778433   0.000000
     8  H    1.775440   1.779331   0.000000
     9  C    2.723604   3.461857   2.803134   0.000000
    10  O    2.604767   3.904731   3.089863   1.236288   0.000000
    11  O    4.061062   4.534398   3.839014   1.367002   2.282329
    12  H    4.610401   5.332665   4.475020   1.931923   2.360859
                   11         12
    11  O    0.000000
    12  H    0.983157   0.000000
 Stoichiometry    C3H6O3
 Framework group  C1[X(C3H6O3)]
 Deg. of freedom    30
 Full point group                 C1      NOp   1
 Largest Abelian subgroup         C1      NOp   1
 Largest concise Abelian subgroup C1      NOp   1
                         Standard orientation:                         
 ---------------------------------------------------------------------
 Center     Atomic      Atomic             Coordinates (Angstroms)
 Number     Number       Type             X           Y           Z
 ---------------------------------------------------------------------
      1          6           0        0.672730   -0.090192    0.379628
      2          1           0        0.743006   -0.102516    1.481158
      3          8           0        1.020179   -1.393495   -0.153533
      4          1           0        1.932386   -1.620860    0.116551
      5          6           0        1.573002    1.014207   -0.178812
      6          1           0        1.244942    1.995686    0.172023
      7          1           0        2.609065    0.855063    0.140875
      8          1           0        1.538161    1.005414   -1.272128
      9          6           0       -0.786347    0.184655    0.062254
     10          8           0       -1.264641    1.322335   -0.010735
     11          8           0       -1.548503   -0.941213   -0.079996
     12          1           0       -2.480145   -0.685817   -0.262791
 ---------------------------------------------------------------------
 Rotational constants (GHZ):           5.0000984           3.3429225           2.1141191
 Standard basis: 6-31G(d) (6D, 7F)
 There are   102 symmetry adapted cartesian basis functions of A   symmetry.
 There are   102 symmetry adapted basis functions of A   symmetry.
   102 basis functions,   192 primitive gaussians,   102 cartesian basis functions
    24 alpha electrons       24 beta electrons
       nuclear repulsion energy       246.4165574572 Hartrees.
 NAtoms=   12 NActive=   12 NUniq=   12 SFac= 1.00D+00 NAtFMM=   60 NAOKFM=F Big=F
 Integral buffers will be    131072 words long.
 Regular integral format.
 Two-electron integral symmetry is turned on.
 One-electron integrals computed using PRISM.
 NBasis=   102 RedAO= T EigKep=  3.11D-03  NBF=   102
 NBsUse=   102 1.00D-06 EigRej= -1.00D+00 NBFU=   102
 ExpMin= 1.61D-01 ExpMax= 5.48D+03 ExpMxC= 8.25D+02 IAcc=3 IRadAn=         5 AccDes= 0.00D+00
 Harris functional with IExCor=  402 and IRadAn=       5 diagonalized for initial guess.
 HarFok:  IExCor=  402 AccDes= 0.00D+00 IRadAn=         5 IDoV= 1 UseB2=F ITyADJ=14
 ICtDFT=  3500011 ScaDFX=  1.000000  1.000000  1.000000  1.000000
 FoFCou: FMM=F IPFlag=           0 FMFlag=      100000 FMFlg1=           0
         NFxFlg=           0 DoJE=T BraDBF=F KetDBF=T FulRan=T
         wScrn=  0.000000 ICntrl=       500 IOpCl=  0 I1Cent=   200000004 NGrid=           0
         NMat0=    1 NMatS0=      1 NMatT0=    0 NMatD0=    1 NMtDS0=    0 NMtDT0=    0
 Petite list used in FoFCou.
 Keep R1 ints in memory in canonical form, NReq=21214305.
 Requested convergence on RMS density matrix=1.00D-08 within 128 cycles.
 Requested convergence on MAX density matrix=1.00D-06.
 Requested convergence on             energy=1.00D-06.
 No special actions if energy rises.
 Integral accuracy reduced to 1.0D-05 until final iterations.
 Initial convergence to 1.0D-05 achieved.  Increase integral accuracy.
 SCF Done:  E(RB3LYP) =  -343.594094855     A.U. after   14 cycles
            NFock= 14  Conv=0.30D-08     -V/T= 2.0094
 DoSCS=F DFT=T ScalE2(SS,OS)=  1.000000  1.000000
 ExpMin= 1.61D-01 ExpMax= 5.48D+03 ExpMxC= 8.25D+02 IAcc=3 IRadAn=         5 AccDes= 0.00D+00
 HarFok:  IExCor=  205 AccDes= 0.00D+00 IRadAn=         5 IDoV=-2 UseB2=F ITyADJ=14
 ICtDFT= 12500011 ScaDFX=  1.000000  1.000000  1.000000  1.000000
 Range of M.O.s used for correlation:     7   102
 NBasis=   102 NAE=    24 NBE=    24 NFC=     6 NFV=     0
 NROrb=     96 NOA=    18 NOB=    18 NVA=    78 NVB=    78
 Keep R1, R2, and R3 ints in memory in canonical form, NReq=75112043.
 Orbital symmetries:
       Occupied  (A) (A) (A) (A) (A) (A) (A) (A) (A) (A) (A) (A)
                 (A) (A) (A) (A) (A) (A) (A) (A) (A) (A) (A) (A)
       Virtual   (A) (A) (A) (A) (A) (A) (A) (A) (A) (A) (A) (A)
                 (A) (A) (A) (A) (A) (A) (A) (A) (A) (A) (A) (A)
                 (A) (A) (A) (A) (A) (A) (A) (A) (A) (A) (A) (A)
                 (A) (A) (A) (A) (A) (A) (A) (A) (A) (A) (A) (A)
                 (A) (A) (A) (A) (A) (A) (A) (A) (A) (A) (A) (A)
                 (A) (A) (A) (A) (A) (A) (A) (A) (A) (A) (A) (A)
                 (A) (A) (A) (A) (A) (A)
    64 initial guesses have been made.
 Convergence on wavefunction:    0.001000000000000
 Iteration     1 Dimension    64 NMult     0 NNew     64
 CISAX will form    64 AO SS matrices at one time.
 New state      3 was old state      4
 New state      4 was old state      5
 New state      5 was old state      6
 New state      6 was old state      7
 New state      7 was old state      9
 New state      9 was old state     10
 New state     10 was old state     11
 New state     11 was old state     12
 New state     12 was old state     14
 New state     13 was old state     15
 New state     14 was old state     13
 New state     15 was old state     16
 New state     16 was old state     18
 Iteration     2 Dimension    96 NMult    64 NNew     32
 Iteration     3 Dimension   128 NMult    96 NNew     32
 Iteration     4 Dimension   158 NMult   128 NNew     30
 ***********************************************************************
 Excited states from <AA,BB:AA,BB> singles matrix:
 ***********************************************************************
 
 Ground to excited state transition densities written to RWF  633
 Ground to excited state transition electric dipole moments (Au):
       state          X           Y           Z        Dip. S.      Osc.
         1        -0.0031      0.0084      0.0577      0.0034      0.0005
         2        -0.2728     -0.0397     -0.0854      0.0833      0.0130
         3         0.1534     -0.3208      0.0484      0.1288      0.0245
         4        -0.0680      0.0580     -0.0195      0.0084      0.0016
         5         0.0446      0.0805     -0.0699      0.0133      0.0027
         6        -0.0352     -0.6055     -0.0269      0.3686      0.0765
         7        -0.0323     -0.0437     -0.0236      0.0035      0.0007
         8        -0.1773     -0.1561      0.0211      0.0562      0.0120
         9        -0.4265     -0.2751     -0.0536      0.2605      0.0561
        10        -0.0765     -0.1775     -0.0681      0.0420      0.0093
        11        -0.3073      0.0864     -0.0623      0.1058      0.0243
        12        -0.0565     -0.1005     -0.1554      0.0374      0.0088
        13        -0.1338      0.0256      0.0399      0.0201      0.0047
        14         0.2211     -0.0174      0.0321      0.0502      0.0119
        15        -0.0864      0.1556     -0.0596      0.0352      0.0084
        16        -0.1684     -0.2072     -0.0512      0.0739      0.0181
 Ground to excited state transition velocity dipole moments (Au):
       state          X           Y           Z        Dip. S.      Osc.
         1         0.0030      0.0020     -0.0174      0.0003      0.0011
         2         0.0622      0.0244      0.0079      0.0045      0.0129
         3        -0.0393      0.0826     -0.0132      0.0085      0.0200
         4         0.0017     -0.0372      0.0471      0.0036      0.0083
         5        -0.0231     -0.0387      0.0207      0.0025      0.0055
         6         0.0022      0.1832     -0.0004      0.0336      0.0719
         7         0.0105      0.0153      0.0211      0.0008      0.0017
         8         0.0684      0.0607     -0.0287      0.0092      0.0191
         9         0.1369      0.0808      0.0186      0.0256      0.0528
        10         0.0175      0.0574      0.0538      0.0065      0.0131
        11         0.0995     -0.0245      0.0183      0.0108      0.0210
        12         0.0129      0.0202      0.0624      0.0045      0.0085
        13         0.0485     -0.0116     -0.0174      0.0028      0.0053
        14        -0.0765      0.0044     -0.0045      0.0059      0.0110
        15         0.0386     -0.0374      0.0418      0.0046      0.0086
        16         0.0715      0.0862      0.0356      0.0138      0.0250
 Ground to excited state transition magnetic dipole moments (Au):
       state          X           Y           Z
         1        -0.3789      0.7384     -0.0352
         2         0.1135      0.2434      0.0488
         3        -0.0512     -0.2041      0.3085
         4        -0.4188     -0.2743     -0.5562
         5        -0.1911      0.0638     -0.2005
         6        -0.0570      0.2258     -0.7541
         7        -0.9942     -0.5673     -0.0861
         8         0.0779     -0.0882     -0.0980
         9         0.2519      0.0396     -0.2337
        10        -0.0926      0.4020     -0.3959
        11        -0.0353      0.2953      0.3626
        12        -0.0800     -0.1728     -0.0997
        13        -0.4118     -0.2741     -0.1698
        14         0.1111     -0.1177      0.5160
        15        -0.3145      0.1122      0.4410
        16        -0.1651     -0.4600      0.4409
 Ground to excited state transition velocity quadrupole moments (Au):
       state          XX          YY          ZZ          XY          XZ          YZ
         1         0.0594      0.0272     -0.0592     -0.0037     -0.0234     -0.0122
         2         0.0302     -0.1347      0.1761      0.1577     -0.0251      0.0423
         3         0.2117      0.1251     -0.0731     -0.3580      0.0203     -0.0221
         4        -0.1528      0.2187     -0.0527      0.0339      0.1897     -0.2638
         5        -0.2828      0.0558      0.1918     -0.1154      0.0132     -0.0248
         6        -0.5274      0.0196      0.0783     -0.3045     -0.0511     -0.0027
         7        -0.1005     -0.0070      0.0102      0.0029     -0.0030     -0.2438
         8         0.0048     -0.0549      0.0021     -0.1688     -0.0223      0.0897
         9        -0.3731      0.1967     -0.0158     -0.5809     -0.0179     -0.0021
        10         0.0258      0.0433     -0.0410     -0.1937     -0.3096     -0.1087
        11        -0.0841     -0.0723      0.2525      0.0143      0.0242     -0.1306
        12        -0.1804     -0.0850      0.4321      0.0983      0.1193     -0.0466
        13         0.2595     -0.0108     -0.1668     -0.0000      0.0555     -0.0119
        14         0.2359     -0.0900     -0.1920      0.0780     -0.0522      0.0444
        15         0.3422     -0.1281      0.0646      0.1658     -0.0064     -0.1423
        16         0.4733     -0.0760     -0.1577     -0.2988      0.1626     -0.1339
 <0|del|b> * <b|rxdel|0> + <0|del|b> * <b|delr+rdel|0>
 Rotatory Strengths (R) in cgs (10**-40 erg-esu-cm/Gauss)
       state          XX          YY          ZZ    R(velocity)    E-M Angle
         1         3.8290     -1.0726      0.5588      1.1051       86.35
         2        12.3505     13.3571     14.7296     13.4790       43.25
         3       -22.1749     -7.3379    -17.4104    -15.6411      123.24
         4        -8.9472    -35.2142      3.5155    -13.5486      111.82
         5       -10.0634      3.8222      1.0307     -1.7368       98.98
         6        58.1277      0.0706     36.2153     31.4712       73.30
         7       -11.5839    -16.5355    -18.4822    -15.5339      130.38
         8         4.0297     10.3984     -8.2737      2.0515       79.04
         9       -11.5215     44.4664     39.9477     24.2975       52.99
        10         9.7664    -15.3987      5.9724      0.1134       89.80
        11         0.2664    -10.4297      1.7201     -2.8144       94.82
        12        -6.0061    -14.0447     -1.5129     -7.1879      138.38
        13         6.7776    -17.6249    -16.8793     -9.2422      120.09
        14        -2.9648    -13.7739     -5.8022     -7.5136      105.88
        15        20.6776     -6.0283    -10.4623      1.3957       86.77
        16       -46.6501      4.7685    -26.7473    -22.8763      117.53
 1/2[<0|r|b>*<b|rxdel|0> + (<0|rxdel|b>*<b|r|0>)*]
 Rotatory Strengths (R) in cgs (10**-40 erg-esu-cm/Gauss)
       state          XX          YY          ZZ     R(length)
         1        -0.8349     -4.3955      1.4369     -1.2645
         2        21.8958      6.8314      2.9478     10.5583
         3         5.5492    -46.3042    -10.5550    -17.1033
         4       -20.1410     11.2535     -7.6610     -5.5162
         5         6.0279     -3.6283     -9.9100     -2.5035
         6        -1.4198     96.6754    -14.3583     26.9658
         7       -22.7046    -17.5344     -1.4367    -13.8919
         8         9.7702     -9.7366      1.4605      0.4980
         9        75.9790      7.7133     -8.8601     24.9441
        10        -5.0106     50.4724    -19.0700      8.7972
        11        -7.6646    -18.0401     15.9703     -3.2448
        12        -3.1931    -12.2807    -10.9579     -8.8106
        13       -38.9676      4.9650      4.7906     -9.7373
        14       -17.3608     -1.4487    -11.7278    -10.1791
        15       -19.2130    -12.3442     18.5925     -4.3216
        16       -19.6584    -67.4021     15.9528    -23.7026
  1/2[<0|del|b>*<b|r|0> + (<0|r|b>*<b|del|0>)*] (Au)
       state          X           Y           Z        Dip. S.   Osc.(frdel)
         1        -0.0000      0.0000     -0.0010      0.0010      0.0007
         2        -0.0170     -0.0010     -0.0007      0.0186      0.0124
         3        -0.0060     -0.0265     -0.0006      0.0332      0.0221
         4        -0.0001     -0.0022     -0.0009      0.0032      0.0021
         5        -0.0010     -0.0031     -0.0014      0.0056      0.0037
         6        -0.0001     -0.1109      0.0000      0.1110      0.0740
         7        -0.0003     -0.0007     -0.0005      0.0015      0.0010
         8        -0.0121     -0.0095     -0.0006      0.0222      0.0148
         9        -0.0584     -0.0222     -0.0010      0.0816      0.0544
        10        -0.0013     -0.0102     -0.0037      0.0152      0.0101
        11        -0.0306     -0.0021     -0.0011      0.0338      0.0226
        12        -0.0007     -0.0020     -0.0097      0.0124      0.0083
        13        -0.0065     -0.0003     -0.0007      0.0075      0.0050
        14        -0.0169     -0.0001     -0.0001      0.0171      0.0114
        15        -0.0033     -0.0058     -0.0025      0.0116      0.0078
        16        -0.0120     -0.0179     -0.0018      0.0317      0.0211

 Excitation energies and oscillator strengths:
 
 Excited State   1:      Singlet-A      5.4563 eV  227.23 nm  f=0.0005  <S**2>=0.000
      24 -> 25         0.70057
 This state for optimization and/or second-order correction.
 Total Energy, E(TD-HF/TD-DFT) =  -343.393578895    
 Copying the excited state density for this state as the 1-particle RhoCI density.
 
 Excited State   2:      Singlet-A      6.3669 eV  194.73 nm  f=0.0130  <S**2>=0.000
      23 -> 25         0.70153
 
 Excited State   3:      Singlet-A      7.7580 eV  159.81 nm  f=0.0245  <S**2>=0.000
      22 -> 25         0.49830
      24 -> 26        -0.44474
      24 -> 27        -0.17974
 
 Excited State   4:      Singlet-A      7.9088 eV  156.77 nm  f=0.0016  <S**2>=0.000
      23 -> 26         0.62754
      23 -> 27        -0.30596
 
 Excited State   5:      Singlet-A      8.1326 eV  152.45 nm  f=0.0027  <S**2>=0.000
      20 -> 25         0.10572
      21 -> 25         0.68333
 
 Excited State   6:      Singlet-A      8.4716 eV  146.35 nm  f=0.0765  <S**2>=0.000
      22 -> 25         0.36531
      24 -> 26         0.52600
      24 -> 27        -0.23907
 
 Excited State   7:      Singlet-A      8.6380 eV  143.53 nm  f=0.0007  <S**2>=0.000
      18 -> 25         0.19867
      20 -> 25         0.63682
      24 -> 27         0.14811
 
 Excited State   8:      Singlet-A      8.7285 eV  142.04 nm  f=0.0120  <S**2>=0.000
      22 -> 25         0.10184
      22 -> 26        -0.19882
      23 -> 26         0.26296
      23 -> 27         0.53813
      24 -> 27         0.27701
 
 Excited State   9:      Singlet-A      8.7983 eV  140.92 nm  f=0.0561  <S**2>=0.000
      20 -> 25        -0.14369
      22 -> 25         0.23959
      23 -> 26        -0.14860
      23 -> 27        -0.27548
      24 -> 27         0.53066
 
 Excited State  10:      Singlet-A      8.9986 eV  137.78 nm  f=0.0093  <S**2>=0.000
      22 -> 26         0.56978
      22 -> 27         0.33463
      23 -> 27         0.15201
 
 Excited State  11:      Singlet-A      9.3576 eV  132.50 nm  f=0.0243  <S**2>=0.000
      19 -> 25         0.68492
      24 -> 28         0.10879
 
 Excited State  12:      Singlet-A      9.5783 eV  129.44 nm  f=0.0088  <S**2>=0.000
      18 -> 25         0.13214
      23 -> 28         0.66639
      23 -> 30         0.10342
 
 Excited State  13:      Singlet-A      9.6140 eV  128.96 nm  f=0.0047  <S**2>=0.000
      18 -> 25         0.64717
      20 -> 25        -0.20187
      23 -> 28        -0.13654
 
 Excited State  14:      Singlet-A      9.7020 eV  127.79 nm  f=0.0119  <S**2>=0.000
      22 -> 26        -0.18521
      22 -> 27         0.36338
      24 -> 28         0.55130
 
 Excited State  15:      Singlet-A      9.7429 eV  127.26 nm  f=0.0084  <S**2>=0.000
      17 -> 25        -0.14199
      21 -> 26         0.23460
      22 -> 26        -0.25437
      22 -> 27         0.43632
      24 -> 28        -0.36242
 
 Excited State  16:      Singlet-A     10.0226 eV  123.70 nm  f=0.0181  <S**2>=0.000
      21 -> 26         0.60615
      21 -> 27        -0.21403
      22 -> 26         0.10384
      22 -> 27        -0.18920
 SavETr:  write IOETrn=   770 NScale= 10 NData=  16 NLR=1 NState=   16 LETran=     298.

 **********************************************************************

            Population analysis using the SCF Density.

 **********************************************************************

 Orbital symmetries:
       Occupied  (A) (A) (A) (A) (A) (A) (A) (A) (A) (A) (A) (A)
                 (A) (A) (A) (A) (A) (A) (A) (A) (A) (A) (A) (A)
       Virtual   (A) (A) (A) (A) (A) (A) (A) (A) (A) (A) (A) (A)
                 (A) (A) (A) (A) (A) (A) (A) (A) (A) (A) (A) (A)
                 (A) (A) (A) (A) (A) (A) (A) (A) (A) (A) (A) (A)
                 (A) (A) (A) (A) (A) (A) (A) (A) (A) (A) (A) (A)
                 (A) (A) (A) (A) (A) (A) (A) (A) (A) (A) (A) (A)
                 (A) (A) (A) (A) (A) (A) (A) (A) (A) (A) (A) (A)
                 (A) (A) (A) (A) (A) (A)
 The electronic state is 1-A.
 Alpha  occ. eigenvalues --  -19.19677 -19.15416 -19.14136 -10.32643 -10.26320
 Alpha  occ. eigenvalues --  -10.18731  -1.09468  -1.01756  -1.00541  -0.77362
 Alpha  occ. eigenvalues --   -0.68128  -0.59073  -0.52282  -0.50157  -0.47407
 Alpha  occ. eigenvalues --   -0.44277  -0.41709  -0.40577  -0.38774  -0.37583
 Alpha  occ. eigenvalues --   -0.34700  -0.31423  -0.27871  -0.27430
 Alpha virt. eigenvalues --   -0.00527   0.06209   0.07995   0.11826   0.13910
 Alpha virt. eigenvalues --    0.15362   0.17141   0.20206   0.23399   0.24141
 Alpha virt. eigenvalues --    0.30924   0.36064   0.52244   0.53151   0.56596
 Alpha virt. eigenvalues --    0.58039   0.60171   0.61852   0.65098   0.69332
 Alpha virt. eigenvalues --    0.72287   0.77087   0.78496   0.81297   0.84175
 Alpha virt. eigenvalues --    0.86960   0.88843   0.90675   0.91671   0.95237
 Alpha virt. eigenvalues --    0.97238   0.98249   0.98921   1.06171   1.07983
 Alpha virt. eigenvalues --    1.10522   1.15713   1.31646   1.32646   1.39403
 Alpha virt. eigenvalues --    1.44415   1.49087   1.55192   1.59975   1.67012
 Alpha virt. eigenvalues --    1.73500   1.74275   1.75858   1.79174   1.82988
 Alpha virt. eigenvalues --    1.83719   1.88193   1.92826   1.94170   1.99682
 Alpha virt. eigenvalues --    2.03782   2.08668   2.14089   2.19821   2.25337
 Alpha virt. eigenvalues --    2.31743   2.32721   2.45376   2.48667   2.50705
 Alpha virt. eigenvalues --    2.58046   2.64241   2.67397   2.79450   2.86702
 Alpha virt. eigenvalues --    2.97492   3.08493   3.70662   3.87343   4.14209
 Alpha virt. eigenvalues --    4.16109   4.31065   4.55946
          Condensed to atoms (all electrons):
               1          2          3          4          5          6
     1  C    4.964513   0.360153   0.217339  -0.016607   0.355583  -0.021585
     2  H    0.360153   0.607533  -0.032122  -0.005049  -0.053174   0.002465
     3  O    0.217339  -0.032122   8.278190   0.226654  -0.047616   0.003566
     4  H   -0.016607  -0.005049   0.226654   0.394676  -0.002458  -0.000143
     5  C    0.355583  -0.053174  -0.047616  -0.002458   5.164224   0.342968
     6  H   -0.021585   0.002465   0.003566  -0.000143   0.342968   0.537757
     7  H   -0.030423  -0.004844  -0.000882   0.003059   0.363633  -0.026612
     8  H   -0.030790   0.005442   0.002284  -0.000512   0.373346  -0.021960
     9  C    0.298902  -0.041296  -0.034477   0.005563  -0.043321  -0.002066
    10  O   -0.079316   0.000701   0.001015  -0.000087   0.000094   0.008018
    11  O   -0.085876  -0.000021   0.003276   0.000012   0.002332   0.000135
    12  H    0.009788  -0.000368  -0.000250   0.000025  -0.000228  -0.000018
               7          8          9         10         11         12
     1  C   -0.030423  -0.030790   0.298902  -0.079316  -0.085876   0.009788
     2  H   -0.004844   0.005442  -0.041296   0.000701  -0.000021  -0.000368
     3  O   -0.000882   0.002284  -0.034477   0.001015   0.003276  -0.000250
     4  H    0.003059  -0.000512   0.005563  -0.000087   0.000012   0.000025
     5  C    0.363633   0.373346  -0.043321   0.000094   0.002332  -0.000228
     6  H   -0.026612  -0.021960  -0.002066   0.008018   0.000135  -0.000018
     7  H    0.582760  -0.030605   0.005331   0.000358  -0.000040   0.000004
     8  H   -0.030605   0.539439  -0.006728   0.000881   0.000072  -0.000021
     9  C    0.005331  -0.006728   4.395689   0.545179   0.293798  -0.007446
    10  O    0.000358   0.000881   0.545179   8.069733  -0.079699   0.008056
    11  O   -0.000040   0.000072   0.293798  -0.079699   8.203844   0.217375
    12  H    0.000004  -0.000021  -0.007446   0.008056   0.217375   0.360123
 Mulliken charges:
               1
     1  C    0.058322
     2  H    0.160581
     3  O   -0.616977
     4  H    0.394868
     5  C   -0.455382
     6  H    0.177476
     7  H    0.138262
     8  H    0.169154
     9  C    0.590873
    10  O   -0.474932
    11  O   -0.555206
    12  H    0.412962
 Sum of Mulliken charges =  -0.00000
 Mulliken charges with hydrogens summed into heavy atoms:
               1
     1  C    0.218903
     3  O   -0.222108
     5  C    0.029509
     9  C    0.590873
    10  O   -0.474932
    11  O   -0.142244
 Electronic spatial extent (au):  <R**2>=            574.4761
 Charge=              0.0000 electrons
 Dipole moment (field-independent basis, Debye):
    X=              1.4364    Y=             -0.6346    Z=              0.8789  Tot=              1.7996
 Quadrupole moment (field-independent basis, Debye-Ang):
   XX=            -26.0992   YY=            -40.6266   ZZ=            -34.1488
   XY=              1.5975   XZ=              2.0865   YZ=             -0.8742
 Traceless Quadrupole moment (field-independent basis, Debye-Ang):
   XX=              7.5257   YY=             -7.0018   ZZ=             -0.5239
   XY=              1.5975   XZ=              2.0865   YZ=             -0.8742
 Octapole moment (field-independent basis, Debye-Ang**2):
  XXX=            -13.5408  YYY=             -6.7122  ZZZ=             -0.2433  XYY=              7.7973
  XXY=            -16.5721  XXZ=             -1.0034  XZZ=             -2.4483  YZZ=             -1.0292
  YYZ=              1.2887  XYZ=             -2.3494
 Hexadecapole moment (field-independent basis, Debye-Ang**3):
 XXXX=           -296.9401 YYYY=           -252.5770 ZZZZ=            -50.2778 XXXY=             -4.8983
 XXXZ=             12.4471 YYYX=             -9.5867 YYYZ=              0.4751 ZZZX=              0.8934
 ZZZY=             -0.3937 XXYY=            -97.7388 XXZZ=            -71.6299 YYZZ=            -50.9684
 XXYZ=              0.3648 YYXZ=              2.8663 ZZXY=             -1.8263
 N-N= 2.464165574572D+02 E-N=-1.298361914282D+03  KE= 3.403927837402D+02
 Unable to Open any file for archive entry.
 1\1\GINC-CCC319\SP\RB3LYP TD-FC\6-31G(d)\C3H6O3\ROOT\21-Feb-2025\0\\# 
 td=(nstat=16) b3lyp/6-31g(d)\\lactic_acid | No.13\\0,1\C,0,-0.67273,-0
 .090192,-0.379628\H,0,-0.743006,-0.102516,-1.481158\O,0,-1.020179,-1.3
 93495,0.153533\H,0,-1.932386,-1.62086,-0.116551\C,0,-1.573002,1.014207
 ,0.178812\H,0,-1.244942,1.995686,-0.172023\H,0,-2.609065,0.855063,-0.1
 40875\H,0,-1.538161,1.005414,1.272128\C,0,0.786347,0.184655,-0.062254\
 O,0,1.264641,1.322335,0.010735\O,0,1.548503,-0.941213,0.079996\H,0,2.4
 80145,-0.685817,0.262791\\Version=ES64L-G16RevC.02\State=1-A\HF=-343.5
 940949\RMSD=2.975e-09\PG=C01 [X(C3H6O3)]\\@
 The archive entry for this job was punched.


 THERE IS MORE TO LIFE THAN INCREASING ITS SPEED.

                                       -- GANDHI
 Job cpu time:       0 days  0 hours  3 minutes  1.2 seconds.
 Elapsed time:       0 days  0 hours  0 minutes 26.0 seconds.
 File lengths (MBytes):  RWF=    178 Int=      0 D2E=      0 Chk=      8 Scr=      1
 Normal termination of Gaussian 16 at Fri Feb 21 14:05:05 2025.
