 Entering Gaussian System, Link 0=/apl/gaussian/16c02/g16/._.g16
 Initial command:
 /apl/gaussian/16c02/g16/l1.exe "/lwork/users/ux8/8286864.ccpbs1/gaussian/Gau-1906765.inp" -scrdir="/lwork/users/ux8/8286864.ccpbs1/gaussian/"
 Default CPUs for threads: 96,97,98,99,100,101,102,103
 Default is to use a total of   8 processors:
                                8 via shared-memory
                                1 via Linda
 Entering Link 1 = /apl/gaussian/16c02/g16/l1.exe PID=   1906766.
  
 Copyright (c) 1988-2021, Gaussian, Inc.  All Rights Reserved.
  
 This is part of the Gaussian(R) 16 program.  It is based on
 the Gaussian(R) 09 system (copyright 2009, Gaussian, Inc.),
 the Gaussian(R) 03 system (copyright 2003, Gaussian, Inc.),
 the Gaussian(R) 98 system (copyright 1998, Gaussian, Inc.),
 the Gaussian(R) 94 system (copyright 1995, Gaussian, Inc.),
 the Gaussian 92(TM) system (copyright 1992, Gaussian, Inc.),
 the Gaussian 90(TM) system (copyright 1990, Gaussian, Inc.),
 the Gaussian 88(TM) system (copyright 1988, Gaussian, Inc.),
 the Gaussian 86(TM) system (copyright 1986, Carnegie Mellon
 University), and the Gaussian 82(TM) system (copyright 1983,
 Carnegie Mellon University). Gaussian is a federally registered
 trademark of Gaussian, Inc.
  
 This software contains proprietary and confidential information,
 including trade secrets, belonging to Gaussian, Inc.
  
 This software is provided under written license and may be
 used, copied, transmitted, or stored only in accord with that
 written license.
  
 The following legend is applicable only to US Government
 contracts under FAR:
  
                    RESTRICTED RIGHTS LEGEND
  
 Use, reproduction and disclosure by the US Government is
 subject to restrictions as set forth in subparagraphs (a)
 and (c) of the Commercial Computer Software - Restricted
 Rights clause in FAR 52.227-19.
  
 Gaussian, Inc.
 340 Quinnipiac St., Bldg. 40, Wallingford CT 06492
  
  
 ---------------------------------------------------------------
 Warning -- This program may not be used in any manner that
 competes with the business of Gaussian, Inc. or will provide
 assistance to any competitor of Gaussian, Inc.  The licensee
 of this program is prohibited from giving any competitor of
 Gaussian, Inc. access to this program.  By using this program,
 the user acknowledges that Gaussian, Inc. is engaged in the
 business of creating and licensing software in the field of
 computational chemistry and represents and warrants to the
 licensee that it is not a competitor of Gaussian, Inc. and that
 it will not use this program in any manner prohibited above.
 ---------------------------------------------------------------
  

 Cite this work as:
 Gaussian 16, Revision C.02,
 M. J. Frisch, G. W. Trucks, H. B. Schlegel, G. E. Scuseria, 
 M. A. Robb, J. R. Cheeseman, G. Scalmani, V. Barone, 
 G. A. Petersson, H. Nakatsuji, X. Li, M. Caricato, A. V. Marenich, 
 J. Bloino, B. G. Janesko, R. Gomperts, B. Mennucci, H. P. Hratchian, 
 J. V. Ortiz, A. F. Izmaylov, J. L. Sonnenberg, D. Williams-Young, 
 F. Ding, F. Lipparini, F. Egidi, J. Goings, B. Peng, A. Petrone, 
 T. Henderson, D. Ranasinghe, V. G. Zakrzewski, J. Gao, N. Rega, 
 G. Zheng, W. Liang, M. Hada, M. Ehara, K. Toyota, R. Fukuda, 
 J. Hasegawa, M. Ishida, T. Nakajima, Y. Honda, O. Kitao, H. Nakai, 
 T. Vreven, K. Throssell, J. A. Montgomery, Jr., J. E. Peralta, 
 F. Ogliaro, M. J. Bearpark, J. J. Heyd, E. N. Brothers, K. N. Kudin, 
 V. N. Staroverov, T. A. Keith, R. Kobayashi, J. Normand, 
 K. Raghavachari, A. P. Rendell, J. C. Burant, S. S. Iyengar, 
 J. Tomasi, M. Cossi, J. M. Millam, M. Klene, C. Adamo, R. Cammi, 
 J. W. Ochterski, R. L. Martin, K. Morokuma, O. Farkas, 
 J. B. Foresman, and D. J. Fox, Gaussian, Inc., Wallingford CT, 2019.
 
 ******************************************
 Gaussian 16:  ES64L-G16RevC.02  7-Dec-2021
                21-Feb-2025 
 ******************************************
 %chk=lactic_acid.007.tddft.chk
 %mem=9600MB
 SetSPE:  set environment variable "OMP_PROC_BIND" = "true"
 SetSPE:  set environment variable "OMP_PLACES" = "{96},{97},{98},{99},{100},{101},{102},{103}"
 ------------------------------
 # td=(nstat=16) b3lyp/6-31g(d)
 ------------------------------
 1/38=1,172=1/1;
 2/12=2,17=6,18=5,40=1/2;
 3/5=1,6=6,7=1,11=9,25=1,30=1,74=-5/1,2,3,8;
 4//1;
 5/5=2,38=5/2;
 8/6=1,10=2,108=16/1;
 9/41=16,42=1,70=2/14;
 6/7=2,8=2,9=2,10=2/1;
 99/5=1,9=1/99;
 ------------------
 lactic_acid | No.7
 ------------------
 Symbolic Z-matrix:
 Charge =  0 Multiplicity = 1
 C                    -0.66779   0.15735  -0.41323 
 H                    -0.74868   0.62617  -1.40307 
 O                    -1.21734  -1.18192  -0.4328 
 H                    -2.1896   -1.13529  -0.53081 
 C                    -1.35693   1.04812   0.6346 
 H                    -0.90298   2.04377   0.65896 
 H                    -2.41855   1.16574   0.38628 
 H                    -1.27511   0.5905    1.62493 
 C                     0.81643   0.06992  -0.12394 
 O                     1.63402   0.8959   -0.54266 
 O                     1.16458  -0.96331   0.70265 
 H                     2.13456  -0.94858   0.8616 
 
                          Input orientation:                          
 ---------------------------------------------------------------------
 Center     Atomic      Atomic             Coordinates (Angstroms)
 Number     Number       Type             X           Y           Z
 ---------------------------------------------------------------------
      1          6           0       -0.667790    0.157347   -0.413225
      2          1           0       -0.748684    0.626167   -1.403072
      3          8           0       -1.217338   -1.181922   -0.432798
      4          1           0       -2.189601   -1.135286   -0.530805
      5          6           0       -1.356927    1.048123    0.634601
      6          1           0       -0.902980    2.043774    0.658956
      7          1           0       -2.418548    1.165741    0.386282
      8          1           0       -1.275111    0.590501    1.624929
      9          6           0        0.816430    0.069919   -0.123943
     10          8           0        1.634018    0.895904   -0.542661
     11          8           0        1.164581   -0.963314    0.702648
     12          1           0        2.134558   -0.948580    0.861602
 ---------------------------------------------------------------------
                    Distance matrix (angstroms):
                    1          2          3          4          5
     1  C    0.000000
     2  H    1.098241   0.000000
     3  O    1.447766   2.104817   0.000000
     4  H    2.000158   2.437172   0.978302   0.000000
     5  C    1.538288   2.167975   2.476273   2.611282   0.000000
     6  H    2.182543   2.507065   3.419921   3.630062   1.094524
     7  H    2.172838   2.506267   2.761398   2.487607   1.096602
     8  H    2.170376   3.073628   2.716443   2.908921   1.094012
     9  C    1.514674   2.096465   2.408051   3.264089   2.501150
    10  O    2.420855   2.547613   3.529825   4.329658   3.217898
    11  O    2.420462   3.259001   2.647747   3.577921   3.226223
    12  H    3.271301   3.990196   3.600712   4.546648   4.028501
                    6          7          8          9         10
     6  H    0.000000
     7  H    1.772636   0.000000
     8  H    1.784261   1.781178   0.000000
     9  C    2.732289   3.453439   2.775627   0.000000
    10  O    3.032795   4.166418   3.640707   1.235324   0.000000
    11  O    3.649561   4.179925   3.035958   1.368222   2.286451
    12  H    4.268710   5.042525   3.818021   1.935485   2.371627
                   11         12
    11  O    0.000000
    12  H    0.983025   0.000000
 Stoichiometry    C3H6O3
 Framework group  C1[X(C3H6O3)]
 Deg. of freedom    30
 Full point group                 C1      NOp   1
 Largest Abelian subgroup         C1      NOp   1
 Largest concise Abelian subgroup C1      NOp   1
                         Standard orientation:                         
 ---------------------------------------------------------------------
 Center     Atomic      Atomic             Coordinates (Angstroms)
 Number     Number       Type             X           Y           Z
 ---------------------------------------------------------------------
      1          6           0       -0.667790    0.157347   -0.413225
      2          1           0       -0.748684    0.626167   -1.403072
      3          8           0       -1.217338   -1.181922   -0.432798
      4          1           0       -2.189601   -1.135286   -0.530805
      5          6           0       -1.356927    1.048123    0.634601
      6          1           0       -0.902980    2.043774    0.658956
      7          1           0       -2.418548    1.165741    0.386282
      8          1           0       -1.275111    0.590501    1.624929
      9          6           0        0.816430    0.069919   -0.123943
     10          8           0        1.634018    0.895904   -0.542661
     11          8           0        1.164581   -0.963314    0.702648
     12          1           0        2.134558   -0.948580    0.861602
 ---------------------------------------------------------------------
 Rotational constants (GHZ):           5.0283571           2.9580122           2.3651668
 Standard basis: 6-31G(d) (6D, 7F)
 There are   102 symmetry adapted cartesian basis functions of A   symmetry.
 There are   102 symmetry adapted basis functions of A   symmetry.
   102 basis functions,   192 primitive gaussians,   102 cartesian basis functions
    24 alpha electrons       24 beta electrons
       nuclear repulsion energy       246.4132036816 Hartrees.
 NAtoms=   12 NActive=   12 NUniq=   12 SFac= 1.00D+00 NAtFMM=   60 NAOKFM=F Big=F
 Integral buffers will be    131072 words long.
 Regular integral format.
 Two-electron integral symmetry is turned on.
 One-electron integrals computed using PRISM.
 NBasis=   102 RedAO= T EigKep=  3.23D-03  NBF=   102
 NBsUse=   102 1.00D-06 EigRej= -1.00D+00 NBFU=   102
 ExpMin= 1.61D-01 ExpMax= 5.48D+03 ExpMxC= 8.25D+02 IAcc=3 IRadAn=         5 AccDes= 0.00D+00
 Harris functional with IExCor=  402 and IRadAn=       5 diagonalized for initial guess.
 HarFok:  IExCor=  402 AccDes= 0.00D+00 IRadAn=         5 IDoV= 1 UseB2=F ITyADJ=14
 ICtDFT=  3500011 ScaDFX=  1.000000  1.000000  1.000000  1.000000
 FoFCou: FMM=F IPFlag=           0 FMFlag=      100000 FMFlg1=           0
         NFxFlg=           0 DoJE=T BraDBF=F KetDBF=T FulRan=T
         wScrn=  0.000000 ICntrl=       500 IOpCl=  0 I1Cent=   200000004 NGrid=           0
         NMat0=    1 NMatS0=      1 NMatT0=    0 NMatD0=    1 NMtDS0=    0 NMtDT0=    0
 Petite list used in FoFCou.
 Keep R1 ints in memory in canonical form, NReq=21214305.
 Requested convergence on RMS density matrix=1.00D-08 within 128 cycles.
 Requested convergence on MAX density matrix=1.00D-06.
 Requested convergence on             energy=1.00D-06.
 No special actions if energy rises.
 Integral accuracy reduced to 1.0D-05 until final iterations.
 Initial convergence to 1.0D-05 achieved.  Increase integral accuracy.
 SCF Done:  E(RB3LYP) =  -343.594072166     A.U. after   14 cycles
            NFock= 14  Conv=0.27D-08     -V/T= 2.0094
 DoSCS=F DFT=T ScalE2(SS,OS)=  1.000000  1.000000
 ExpMin= 1.61D-01 ExpMax= 5.48D+03 ExpMxC= 8.25D+02 IAcc=3 IRadAn=         5 AccDes= 0.00D+00
 HarFok:  IExCor=  205 AccDes= 0.00D+00 IRadAn=         5 IDoV=-2 UseB2=F ITyADJ=14
 ICtDFT= 12500011 ScaDFX=  1.000000  1.000000  1.000000  1.000000
 Range of M.O.s used for correlation:     7   102
 NBasis=   102 NAE=    24 NBE=    24 NFC=     6 NFV=     0
 NROrb=     96 NOA=    18 NOB=    18 NVA=    78 NVB=    78
 Keep R1, R2, and R3 ints in memory in canonical form, NReq=75112043.
 Orbital symmetries:
       Occupied  (A) (A) (A) (A) (A) (A) (A) (A) (A) (A) (A) (A)
                 (A) (A) (A) (A) (A) (A) (A) (A) (A) (A) (A) (A)
       Virtual   (A) (A) (A) (A) (A) (A) (A) (A) (A) (A) (A) (A)
                 (A) (A) (A) (A) (A) (A) (A) (A) (A) (A) (A) (A)
                 (A) (A) (A) (A) (A) (A) (A) (A) (A) (A) (A) (A)
                 (A) (A) (A) (A) (A) (A) (A) (A) (A) (A) (A) (A)
                 (A) (A) (A) (A) (A) (A) (A) (A) (A) (A) (A) (A)
                 (A) (A) (A) (A) (A) (A) (A) (A) (A) (A) (A) (A)
                 (A) (A) (A) (A) (A) (A)
    64 initial guesses have been made.
 Convergence on wavefunction:    0.001000000000000
 Iteration     1 Dimension    64 NMult     0 NNew     64
 CISAX will form    64 AO SS matrices at one time.
 New state      3 was old state      5
 New state      5 was old state      6
 New state      6 was old state      7
 New state      7 was old state     10
 New state     10 was old state     11
 New state     11 was old state     12
 New state     12 was old state     13
 New state     13 was old state     14
 New state     14 was old state     15
 New state     15 was old state     16
 New state     16 was old state     18
 Iteration     2 Dimension    96 NMult    64 NNew     32
 New state      9 was old state     10
 New state     10 was old state      9
 Iteration     3 Dimension   128 NMult    96 NNew     32
 Iteration     4 Dimension   158 NMult   128 NNew     30
 Iteration     5 Dimension   166 NMult   158 NNew      8
 ***********************************************************************
 Excited states from <AA,BB:AA,BB> singles matrix:
 ***********************************************************************
 
 Ground to excited state transition densities written to RWF  633
 Ground to excited state transition electric dipole moments (Au):
       state          X           Y           Z        Dip. S.      Osc.
         1         0.0568     -0.0685     -0.0651      0.0122      0.0016
         2         0.2329     -0.0824      0.0140      0.0612      0.0096
         3        -0.1587     -0.1521      0.0735      0.0537      0.0101
         4         0.1782     -0.0064     -0.0986      0.0415      0.0079
         5         0.1107     -0.0029     -0.0805      0.0187      0.0037
         6         0.3386      0.4884     -0.2524      0.4169      0.0864
         7         0.2194     -0.1836      0.0377      0.0833      0.0177
         8        -0.0726      0.1594     -0.1707      0.0598      0.0128
         9         0.2575     -0.3262      0.3449      0.2917      0.0627
        10        -0.0102     -0.1488      0.0664      0.0266      0.0058
        11         0.2715     -0.1521      0.0073      0.0969      0.0224
        12         0.0520     -0.0162     -0.0462      0.0051      0.0012
        13         0.0847     -0.1616     -0.0428      0.0351      0.0084
        14         0.4499     -0.3092     -0.0533      0.3008      0.0726
        15         0.2841      0.0053     -0.0127      0.0809      0.0198
        16         0.3456     -0.0244     -0.0350      0.1212      0.0299
 Ground to excited state transition velocity dipole moments (Au):
       state          X           Y           Z        Dip. S.      Osc.
         1        -0.0148      0.0157      0.0176      0.0008      0.0026
         2        -0.0514      0.0254     -0.0142      0.0035      0.0098
         3         0.0377      0.0411      0.0093      0.0032      0.0075
         4        -0.0491      0.0093      0.0661      0.0069      0.0161
         5        -0.0320     -0.0109      0.0316      0.0021      0.0048
         6        -0.1128     -0.1395      0.0751      0.0378      0.0811
         7        -0.0722      0.0670      0.0062      0.0098      0.0204
         8         0.0233     -0.0481      0.0315      0.0039      0.0080
         9        -0.0803      0.0953     -0.1315      0.0328      0.0679
        10         0.0002      0.0640     -0.0008      0.0041      0.0083
        11        -0.0905      0.0438      0.0074      0.0102      0.0195
        12        -0.0207      0.0257      0.0199      0.0015      0.0028
        13        -0.0436      0.0840      0.0191      0.0093      0.0174
        14        -0.1660      0.1097      0.0139      0.0398      0.0733
        15        -0.1000      0.0083      0.0262      0.0108      0.0196
        16        -0.1235      0.0100      0.0046      0.0154      0.0277
 Ground to excited state transition magnetic dipole moments (Au):
       state          X           Y           Z
         1         0.6286      0.5270     -0.2743
         2         0.0326     -0.1246      0.1689
         3        -0.1346      0.1854     -0.2595
         4        -0.3421      0.5822      0.0809
         5        -0.1498      0.1703      0.0074
         6        -0.0220     -0.2486     -0.4181
         7        -0.7614      0.6726     -0.4930
         8        -0.2355      0.0579     -0.4501
         9         0.1864      0.3537      0.4082
        10        -0.2190     -0.1311      0.3481
        11        -0.1146      0.2523     -0.0374
        12        -0.0794     -0.2422     -0.2007
        13        -0.0616      0.2445     -1.0023
        14         0.2586     -0.2194     -0.1066
        15         0.0332     -0.0947      0.1773
        16         0.3662      0.3224      0.1238
 Ground to excited state transition velocity quadrupole moments (Au):
       state          XX          YY          ZZ          XY          XZ          YZ
         1         0.0320      0.0300     -0.0344     -0.0706     -0.0234      0.0187
         2        -0.0514      0.0102      0.1349     -0.1475      0.0543      0.0475
         3         0.3661      0.0074     -0.0682      0.1787     -0.1865     -0.1522
         4        -0.2400      0.0349     -0.0064     -0.1891     -0.1857     -0.2335
         5         0.0973      0.0776     -0.0205     -0.0143     -0.1259      0.0835
         6         0.2484      0.0606      0.0045     -0.3027      0.3976      0.0400
         7         0.1623     -0.1610      0.0810     -0.0161     -0.1998     -0.0460
         8         0.0319     -0.0295      0.1571     -0.4702      0.2226     -0.0279
         9         0.0323     -0.0002     -0.0678      0.4328     -0.2642      0.1359
        10        -0.1193     -0.1365      0.1974      0.2809      0.0824     -0.0011
        11        -0.2003      0.0635      0.1471     -0.0193     -0.1879      0.1105
        12         0.1649     -0.1917      0.1489      0.0126      0.2418     -0.0252
        13         0.5966     -0.1793     -0.1725      0.0283      0.0506      0.0287
        14         0.3868      0.0665     -0.0515     -0.3328     -0.0985      0.1778
        15         0.1623      0.0576     -0.2530     -0.1894     -0.0401      0.1128
        16        -0.0545      0.1375      0.1236     -0.0631      0.0262      0.0434
 <0|del|b> * <b|rxdel|0> + <0|del|b> * <b|delr+rdel|0>
 Rotatory Strengths (R) in cgs (10**-40 erg-esu-cm/Gauss)
       state          XX          YY          ZZ    R(velocity)    E-M Angle
         1         4.5380    -23.1599     -1.9113     -6.8444      104.00
         2        -7.2576    -12.9006     -1.5195     -7.2259      125.27
         3        18.1445    -18.5722      0.7691      0.1138       89.60
         4         0.0188     57.1941     11.2116     22.8082       60.71
         5        -4.0914      3.3249      8.2624      2.4986       72.45
         6        40.9266    -12.1682    -15.6826      4.3586       86.52
         7        61.3951     61.4509     92.5458     71.7973       29.53
         8       -23.2004     -6.0647    -20.1909    -16.4854      135.05
         9       -56.7372    -24.8363      4.9041    -25.5564      109.73
        10       -15.3314     -0.1152     -3.4198     -6.2888      108.43
        11        19.1875      0.2466     23.5945     14.3429       41.39
        12       -16.2243     -2.0737      1.1166     -5.7271      133.26
        13        -2.2685    -18.0007     28.3631      2.6979       87.65
        14       -18.9098    -67.6665    -47.1360    -44.5708      164.97
        15        -0.7436     -4.8246      6.5953      0.3424       88.56
        16         3.0967    -47.4888    -34.7459    -26.3793      131.59
 1/2[<0|r|b>*<b|rxdel|0> + (<0|rxdel|b>*<b|r|0>)*]
 Rotatory Strengths (R) in cgs (10**-40 erg-esu-cm/Gauss)
       state          XX          YY          ZZ     R(length)
         1       -25.2498     25.5371    -12.6278     -4.1135
         2        -5.3656     -7.2593     -1.6745     -4.7665
         3       -15.1047     19.9365     13.4838      6.1052
         4        43.1038      2.6487      5.6391     17.1305
         5        11.7202      0.3459      0.4224      4.1629
         6         5.2707     85.8637    -74.6042      5.5100
         7       118.1477     87.3141     13.1460     72.8693
         8       -12.0870     -6.5248    -54.3235    -24.3118
         9       -33.9408     81.5851    -99.5548    -17.3035
        10        -1.5836    -13.7981    -16.3437    -10.5751
        11        22.0060     27.1261      0.1931     16.4417
        12         2.9202     -2.7701     -6.5489     -2.1329
        13         3.6926     27.9345    -30.3664      0.4202
        14       -82.2528    -47.9665     -4.0170    -44.7454
        15        -6.6623      0.3528      1.5938     -1.5719
        16       -89.4907      5.5661      3.0634    -26.9537
  1/2[<0|del|b>*<b|r|0> + (<0|r|b>*<b|del|0>)*] (Au)
       state          X           Y           Z        Dip. S.   Osc.(frdel)
         1        -0.0008     -0.0011     -0.0011      0.0031      0.0020
         2        -0.0120     -0.0021     -0.0002      0.0143      0.0095
         3        -0.0060     -0.0063      0.0007      0.0115      0.0077
         4        -0.0087     -0.0001     -0.0065      0.0153      0.0102
         5        -0.0035      0.0000     -0.0025      0.0061      0.0040
         6        -0.0382     -0.0681     -0.0190      0.1253      0.0835
         7        -0.0159     -0.0123      0.0002      0.0279      0.0186
         8        -0.0017     -0.0077     -0.0054      0.0147      0.0098
         9        -0.0207     -0.0311     -0.0453      0.0971      0.0647
        10        -0.0000     -0.0095     -0.0001      0.0096      0.0064
        11        -0.0246     -0.0067      0.0001      0.0312      0.0208
        12        -0.0011     -0.0004     -0.0009      0.0024      0.0016
        13        -0.0037     -0.0136     -0.0008      0.0181      0.0121
        14        -0.0747     -0.0339     -0.0007      0.1094      0.0729
        15        -0.0284      0.0000     -0.0003      0.0287      0.0191
        16        -0.0427     -0.0002     -0.0002      0.0431      0.0287

 Excitation energies and oscillator strengths:
 
 Excited State   1:      Singlet-A      5.4598 eV  227.08 nm  f=0.0016  <S**2>=0.000
      23 -> 25        -0.17535
      24 -> 25         0.68145
 This state for optimization and/or second-order correction.
 Total Energy, E(TD-HF/TD-DFT) =  -343.393427374    
 Copying the excited state density for this state as the 1-particle RhoCI density.
 
 Excited State   2:      Singlet-A      6.4287 eV  192.86 nm  f=0.0096  <S**2>=0.000
      23 -> 25         0.68083
      24 -> 25         0.17438
 
 Excited State   3:      Singlet-A      7.7089 eV  160.83 nm  f=0.0101  <S**2>=0.000
      22 -> 25         0.36498
      23 -> 26         0.23275
      23 -> 27        -0.16246
      24 -> 26         0.51595
      24 -> 27         0.10474
 
 Excited State   4:      Singlet-A      7.7565 eV  159.85 nm  f=0.0079  <S**2>=0.000
      22 -> 25        -0.26029
      23 -> 26         0.59634
      23 -> 27        -0.15108
      24 -> 27        -0.18506
 
 Excited State   5:      Singlet-A      8.1357 eV  152.39 nm  f=0.0037  <S**2>=0.000
      20 -> 25         0.11177
      21 -> 25         0.69255
 
 Excited State   6:      Singlet-A      8.4555 eV  146.63 nm  f=0.0864  <S**2>=0.000
      22 -> 25        -0.38301
      23 -> 26        -0.17762
      24 -> 26         0.45276
      24 -> 27        -0.29033
 
 Excited State   7:      Singlet-A      8.6690 eV  143.02 nm  f=0.0177  <S**2>=0.000
      18 -> 25        -0.17004
      20 -> 25         0.59349
      22 -> 26         0.11026
      23 -> 27        -0.14057
      24 -> 27        -0.23754
 
 Excited State   8:      Singlet-A      8.7374 eV  141.90 nm  f=0.0128  <S**2>=0.000
      20 -> 25         0.28590
      22 -> 25        -0.18911
      22 -> 26        -0.12049
      23 -> 26         0.16146
      23 -> 27         0.38527
      24 -> 26         0.11243
      24 -> 27         0.38881
 
 Excited State   9:      Singlet-A      8.7693 eV  141.38 nm  f=0.0627  <S**2>=0.000
      22 -> 25         0.26037
      22 -> 26        -0.26008
      23 -> 26         0.11270
      23 -> 27         0.41506
      24 -> 27        -0.39054
 
 Excited State  10:      Singlet-A      8.9048 eV  139.23 nm  f=0.0058  <S**2>=0.000
      22 -> 26         0.54329
      22 -> 27         0.29511
      23 -> 27         0.30234
 
 Excited State  11:      Singlet-A      9.4570 eV  131.10 nm  f=0.0224  <S**2>=0.000
      18 -> 25        -0.14318
      19 -> 25         0.68160
 
 Excited State  12:      Singlet-A      9.5940 eV  129.23 nm  f=0.0012  <S**2>=0.000
      21 -> 26         0.15284
      22 -> 26        -0.31435
      22 -> 27         0.60135
 
 Excited State  13:      Singlet-A      9.7442 eV  127.24 nm  f=0.0084  <S**2>=0.000
      21 -> 26         0.64210
      21 -> 27        -0.15651
      22 -> 27        -0.13250
      24 -> 28         0.11836
 
 Excited State  14:      Singlet-A      9.8555 eV  125.80 nm  f=0.0726  <S**2>=0.000
      17 -> 25        -0.15876
      18 -> 25         0.49585
      19 -> 25         0.10174
      20 -> 25         0.15291
      21 -> 26         0.13658
      23 -> 28        -0.13923
      24 -> 28        -0.35539
 
 Excited State  15:      Singlet-A      9.9827 eV  124.20 nm  f=0.0198  <S**2>=0.000
      17 -> 25        -0.11644
      18 -> 25         0.23509
      23 -> 28         0.59446
      23 -> 30         0.14411
      24 -> 28         0.14470
 
 Excited State  16:      Singlet-A     10.0761 eV  123.05 nm  f=0.0299  <S**2>=0.000
      17 -> 25        -0.24561
      18 -> 25         0.19351
      23 -> 28        -0.25642
      24 -> 28         0.54911
 SavETr:  write IOETrn=   770 NScale= 10 NData=  16 NLR=1 NState=   16 LETran=     298.

 **********************************************************************

            Population analysis using the SCF Density.

 **********************************************************************

 Orbital symmetries:
       Occupied  (A) (A) (A) (A) (A) (A) (A) (A) (A) (A) (A) (A)
                 (A) (A) (A) (A) (A) (A) (A) (A) (A) (A) (A) (A)
       Virtual   (A) (A) (A) (A) (A) (A) (A) (A) (A) (A) (A) (A)
                 (A) (A) (A) (A) (A) (A) (A) (A) (A) (A) (A) (A)
                 (A) (A) (A) (A) (A) (A) (A) (A) (A) (A) (A) (A)
                 (A) (A) (A) (A) (A) (A) (A) (A) (A) (A) (A) (A)
                 (A) (A) (A) (A) (A) (A) (A) (A) (A) (A) (A) (A)
                 (A) (A) (A) (A) (A) (A) (A) (A) (A) (A) (A) (A)
                 (A) (A) (A) (A) (A) (A)
 The electronic state is 1-A.
 Alpha  occ. eigenvalues --  -19.19682 -19.15464 -19.14040 -10.32521 -10.26147
 Alpha  occ. eigenvalues --  -10.19678  -1.09386  -1.01834  -1.00505  -0.77753
 Alpha  occ. eigenvalues --   -0.68046  -0.60054  -0.51736  -0.49003  -0.46963
 Alpha  occ. eigenvalues --   -0.46175  -0.42462  -0.40672  -0.39095  -0.37746
 Alpha  occ. eigenvalues --   -0.34567  -0.31374  -0.28003  -0.27334
 Alpha virt. eigenvalues --   -0.00375   0.05547   0.07884   0.12758   0.14167
 Alpha virt. eigenvalues --    0.15192   0.17090   0.18862   0.20724   0.25078
 Alpha virt. eigenvalues --    0.31076   0.36413   0.50784   0.53113   0.55525
 Alpha virt. eigenvalues --    0.57715   0.59343   0.62658   0.64756   0.68737
 Alpha virt. eigenvalues --    0.74402   0.76989   0.78759   0.80338   0.84507
 Alpha virt. eigenvalues --    0.87087   0.87855   0.90244   0.94021   0.94841
 Alpha virt. eigenvalues --    0.96238   1.00347   1.02405   1.05674   1.06458
 Alpha virt. eigenvalues --    1.07799   1.16491   1.29629   1.35021   1.38184
 Alpha virt. eigenvalues --    1.41774   1.49317   1.52193   1.63600   1.68275
 Alpha virt. eigenvalues --    1.72282   1.74932   1.76315   1.79990   1.82590
 Alpha virt. eigenvalues --    1.83658   1.87286   1.91523   1.94659   1.99411
 Alpha virt. eigenvalues --    2.04985   2.08537   2.11744   2.20717   2.24861
 Alpha virt. eigenvalues --    2.31614   2.34699   2.44571   2.48982   2.51193
 Alpha virt. eigenvalues --    2.60311   2.65175   2.69226   2.81236   2.85139
 Alpha virt. eigenvalues --    2.96829   3.06627   3.71049   3.86837   4.12132
 Alpha virt. eigenvalues --    4.15632   4.32259   4.58895
          Condensed to atoms (all electrons):
               1          2          3          4          5          6
     1  C    4.928910   0.377175   0.212250  -0.016021   0.335719  -0.023398
     2  H    0.377175   0.602728  -0.035853  -0.002829  -0.049837   0.002127
     3  O    0.212250  -0.035853   8.285733   0.225351  -0.039816   0.003413
     4  H   -0.016021  -0.002829   0.225351   0.395221  -0.005270  -0.000095
     5  C    0.335719  -0.049837  -0.039816  -0.005270   5.183679   0.345932
     6  H   -0.023398   0.002127   0.003413  -0.000095   0.345932   0.546519
     7  H   -0.028686  -0.005813  -0.002307   0.004577   0.369216  -0.026709
     8  H   -0.029913   0.005646   0.002264  -0.000439   0.368470  -0.022910
     9  C    0.303342  -0.058519  -0.035012   0.005518  -0.027296  -0.000862
    10  O   -0.068244   0.003297   0.001104  -0.000097  -0.001237   0.002705
    11  O   -0.085656   0.003152   0.003911  -0.000020  -0.001329   0.000177
    12  H    0.009437  -0.000244  -0.000294   0.000027  -0.000318  -0.000030
               7          8          9         10         11         12
     1  C   -0.028686  -0.029913   0.303342  -0.068244  -0.085656   0.009437
     2  H   -0.005813   0.005646  -0.058519   0.003297   0.003152  -0.000244
     3  O   -0.002307   0.002264  -0.035012   0.001104   0.003911  -0.000294
     4  H    0.004577  -0.000439   0.005518  -0.000097  -0.000020   0.000027
     5  C    0.369216   0.368470  -0.027296  -0.001237  -0.001329  -0.000318
     6  H   -0.026709  -0.022910  -0.000862   0.002705   0.000177  -0.000030
     7  H    0.565282  -0.029939   0.004678  -0.000040  -0.000063   0.000011
     8  H   -0.029939   0.537397  -0.009442  -0.000010   0.003172  -0.000148
     9  C    0.004678  -0.009442   4.422401   0.545157   0.277873  -0.006200
    10  O   -0.000040  -0.000010   0.545157   8.064603  -0.080464   0.008194
    11  O   -0.000063   0.003172   0.277873  -0.080464   8.217239   0.216882
    12  H    0.000011  -0.000148  -0.006200   0.008194   0.216882   0.359461
 Mulliken charges:
               1
     1  C    0.085086
     2  H    0.158972
     3  O   -0.620744
     4  H    0.394076
     5  C   -0.477913
     6  H    0.173131
     7  H    0.149794
     8  H    0.175853
     9  C    0.578362
    10  O   -0.474969
    11  O   -0.554873
    12  H    0.413224
 Sum of Mulliken charges =  -0.00000
 Mulliken charges with hydrogens summed into heavy atoms:
               1
     1  C    0.244058
     3  O   -0.226667
     5  C    0.020864
     9  C    0.578362
    10  O   -0.474969
    11  O   -0.141649
 Electronic spatial extent (au):  <R**2>=            567.5535
 Charge=             -0.0000 electrons
 Dipole moment (field-independent basis, Debye):
    X=             -1.9201    Y=              0.1793    Z=              0.7978  Tot=              2.0870
 Quadrupole moment (field-independent basis, Debye-Ang):
   XX=            -28.1127   YY=            -38.6179   ZZ=            -34.7737
   XY=             -4.4343   XZ=              4.2762   YZ=              0.9089
 Traceless Quadrupole moment (field-independent basis, Debye-Ang):
   XX=              5.7220   YY=             -4.7831   ZZ=             -0.9389
   XY=             -4.4343   XZ=              4.2762   YZ=              0.9089
 Octapole moment (field-independent basis, Debye-Ang**2):
  XXX=             -3.4756  YYY=             -2.4770  ZZZ=             -0.0798  XYY=             -0.0973
  XXY=            -17.4533  XXZ=              4.9263  XZZ=              2.0744  YZZ=             -2.1122
  YYZ=              1.4895  XYZ=             -0.3294
 Hexadecapole moment (field-independent basis, Debye-Ang**3):
 XXXX=           -302.0583 YYYY=           -204.1041 ZZZZ=           -103.0426 XXXY=             -3.6058
 XXXZ=             33.3515 YYYX=              2.4570 YYYZ=             -1.5002 ZZZX=              6.7089
 ZZZY=             -4.0936 XXYY=            -87.6721 XXZZ=            -73.1997 YYZZ=            -52.8196
 XXYZ=             -0.7046 YYXZ=              5.8340 ZZXY=             -0.8396
 N-N= 2.464132036816D+02 E-N=-1.298305929439D+03  KE= 3.404002724506D+02
 Unable to Open any file for archive entry.
 1\1\GINC-CCC255\SP\RB3LYP TD-FC\6-31G(d)\C3H6O3\ROOT\21-Feb-2025\0\\# 
 td=(nstat=16) b3lyp/6-31g(d)\\lactic_acid | No.7\\0,1\C,0,-0.66779,0.1
 57347,-0.413225\H,0,-0.748684,0.626167,-1.403072\O,0,-1.217338,-1.1819
 22,-0.432798\H,0,-2.189601,-1.135286,-0.530805\C,0,-1.356927,1.048123,
 0.634601\H,0,-0.90298,2.043774,0.658956\H,0,-2.418548,1.165741,0.38628
 2\H,0,-1.275111,0.590501,1.624929\C,0,0.81643,0.069919,-0.123943\O,0,1
 .634018,0.895904,-0.542661\O,0,1.164581,-0.963314,0.702648\H,0,2.13455
 8,-0.94858,0.861602\\Version=ES64L-G16RevC.02\State=1-A\HF=-343.594072
 2\RMSD=2.659e-09\PG=C01 [X(C3H6O3)]\\@
 The archive entry for this job was punched.


 TOWERING GENIUS DISDAINS A BEATEN PATH.  IT SEEKS 
 REGIONS HITHERTO UNEXPLORED.

                                -- ABRAHAM LINCOLN
 Job cpu time:       0 days  0 hours  3 minutes 52.0 seconds.
 Elapsed time:       0 days  0 hours  0 minutes 33.7 seconds.
 File lengths (MBytes):  RWF=    178 Int=      0 D2E=      0 Chk=      8 Scr=      1
 Normal termination of Gaussian 16 at Fri Feb 21 14:05:13 2025.
