 Entering Gaussian System, Link 0=/apl/gaussian/16c02/g16/._.g16
 Initial command:
 /apl/gaussian/16c02/g16/l1.exe "/lwork/users/ux8/8286861.ccpbs1/gaussian/Gau-1906671.inp" -scrdir="/lwork/users/ux8/8286861.ccpbs1/gaussian/"
 Default CPUs for threads: 56,57,58,59,60,61,62,63
 Default is to use a total of   8 processors:
                                8 via shared-memory
                                1 via Linda
 Entering Link 1 = /apl/gaussian/16c02/g16/l1.exe PID=   1906672.
  
 Copyright (c) 1988-2021, Gaussian, Inc.  All Rights Reserved.
  
 This is part of the Gaussian(R) 16 program.  It is based on
 the Gaussian(R) 09 system (copyright 2009, Gaussian, Inc.),
 the Gaussian(R) 03 system (copyright 2003, Gaussian, Inc.),
 the Gaussian(R) 98 system (copyright 1998, Gaussian, Inc.),
 the Gaussian(R) 94 system (copyright 1995, Gaussian, Inc.),
 the Gaussian 92(TM) system (copyright 1992, Gaussian, Inc.),
 the Gaussian 90(TM) system (copyright 1990, Gaussian, Inc.),
 the Gaussian 88(TM) system (copyright 1988, Gaussian, Inc.),
 the Gaussian 86(TM) system (copyright 1986, Carnegie Mellon
 University), and the Gaussian 82(TM) system (copyright 1983,
 Carnegie Mellon University). Gaussian is a federally registered
 trademark of Gaussian, Inc.
  
 This software contains proprietary and confidential information,
 including trade secrets, belonging to Gaussian, Inc.
  
 This software is provided under written license and may be
 used, copied, transmitted, or stored only in accord with that
 written license.
  
 The following legend is applicable only to US Government
 contracts under FAR:
  
                    RESTRICTED RIGHTS LEGEND
  
 Use, reproduction and disclosure by the US Government is
 subject to restrictions as set forth in subparagraphs (a)
 and (c) of the Commercial Computer Software - Restricted
 Rights clause in FAR 52.227-19.
  
 Gaussian, Inc.
 340 Quinnipiac St., Bldg. 40, Wallingford CT 06492
  
  
 ---------------------------------------------------------------
 Warning -- This program may not be used in any manner that
 competes with the business of Gaussian, Inc. or will provide
 assistance to any competitor of Gaussian, Inc.  The licensee
 of this program is prohibited from giving any competitor of
 Gaussian, Inc. access to this program.  By using this program,
 the user acknowledges that Gaussian, Inc. is engaged in the
 business of creating and licensing software in the field of
 computational chemistry and represents and warrants to the
 licensee that it is not a competitor of Gaussian, Inc. and that
 it will not use this program in any manner prohibited above.
 ---------------------------------------------------------------
  

 Cite this work as:
 Gaussian 16, Revision C.02,
 M. J. Frisch, G. W. Trucks, H. B. Schlegel, G. E. Scuseria, 
 M. A. Robb, J. R. Cheeseman, G. Scalmani, V. Barone, 
 G. A. Petersson, H. Nakatsuji, X. Li, M. Caricato, A. V. Marenich, 
 J. Bloino, B. G. Janesko, R. Gomperts, B. Mennucci, H. P. Hratchian, 
 J. V. Ortiz, A. F. Izmaylov, J. L. Sonnenberg, D. Williams-Young, 
 F. Ding, F. Lipparini, F. Egidi, J. Goings, B. Peng, A. Petrone, 
 T. Henderson, D. Ranasinghe, V. G. Zakrzewski, J. Gao, N. Rega, 
 G. Zheng, W. Liang, M. Hada, M. Ehara, K. Toyota, R. Fukuda, 
 J. Hasegawa, M. Ishida, T. Nakajima, Y. Honda, O. Kitao, H. Nakai, 
 T. Vreven, K. Throssell, J. A. Montgomery, Jr., J. E. Peralta, 
 F. Ogliaro, M. J. Bearpark, J. J. Heyd, E. N. Brothers, K. N. Kudin, 
 V. N. Staroverov, T. A. Keith, R. Kobayashi, J. Normand, 
 K. Raghavachari, A. P. Rendell, J. C. Burant, S. S. Iyengar, 
 J. Tomasi, M. Cossi, J. M. Millam, M. Klene, C. Adamo, R. Cammi, 
 J. W. Ochterski, R. L. Martin, K. Morokuma, O. Farkas, 
 J. B. Foresman, and D. J. Fox, Gaussian, Inc., Wallingford CT, 2019.
 
 ******************************************
 Gaussian 16:  ES64L-G16RevC.02  7-Dec-2021
                21-Feb-2025 
 ******************************************
 %chk=lactic_acid.004.tddft.chk
 %mem=9600MB
 SetSPE:  set environment variable "OMP_PROC_BIND" = "true"
 SetSPE:  set environment variable "OMP_PLACES" = "{56},{57},{58},{59},{60},{61},{62},{63}"
 ------------------------------
 # td=(nstat=16) b3lyp/6-31g(d)
 ------------------------------
 1/38=1,172=1/1;
 2/12=2,17=6,18=5,40=1/2;
 3/5=1,6=6,7=1,11=9,25=1,30=1,74=-5/1,2,3,8;
 4//1;
 5/5=2,38=5/2;
 8/6=1,10=2,108=16/1;
 9/41=16,42=1,70=2/14;
 6/7=2,8=2,9=2,10=2/1;
 99/5=1,9=1/99;
 ------------------
 lactic_acid | No.4
 ------------------
 Symbolic Z-matrix:
 Charge =  0 Multiplicity = 1
 C                    -0.65286  -0.07721  -0.47139 
 H                    -0.70629  -0.1691   -1.56302 
 O                    -1.14689  -1.29065   0.16799 
 H                    -2.10805  -1.3769    0.00471 
 C                    -1.41516   1.16239   0.00719 
 H                    -1.01131   2.07549  -0.44413 
 H                    -2.471     1.08752  -0.28009 
 H                    -1.34523   1.24218   1.09465 
 C                     0.82346  -0.00202  -0.13351 
 O                     1.73555   0.00721  -0.96289 
 O                     1.04835   0.09848   1.21671 
 H                     2.01309   0.12159   1.39969 
 
                          Input orientation:                          
 ---------------------------------------------------------------------
 Center     Atomic      Atomic             Coordinates (Angstroms)
 Number     Number       Type             X           Y           Z
 ---------------------------------------------------------------------
      1          6           0       -0.652855   -0.077209   -0.471392
      2          1           0       -0.706292   -0.169102   -1.563019
      3          8           0       -1.146885   -1.290648    0.167993
      4          1           0       -2.108054   -1.376899    0.004710
      5          6           0       -1.415156    1.162387    0.007190
      6          1           0       -1.011306    2.075493   -0.444126
      7          1           0       -2.470999    1.087516   -0.280094
      8          1           0       -1.345228    1.242181    1.094650
      9          6           0        0.823458   -0.002021   -0.133512
     10          8           0        1.735548    0.007205   -0.962893
     11          8           0        1.048350    0.098477    1.216710
     12          1           0        2.013091    0.121591    1.399687
 ---------------------------------------------------------------------
                    Distance matrix (angstroms):
                    1          2          3          4          5
     1  C    0.000000
     2  H    1.096790   0.000000
     3  O    1.457845   2.109121   0.000000
     4  H    2.008350   2.425177   0.978747   0.000000
     5  C    1.531908   2.177362   2.472895   2.632126   0.000000
     6  H    2.182512   2.526492   3.424029   3.650112   1.095693
     7  H    2.167678   2.517772   2.758573   2.507226   1.096787
     8  H    2.161633   3.076226   2.704303   2.937593   1.092624
     9  C    1.516350   2.100367   2.373545   3.240858   2.527259
    10  O    2.439911   2.520678   3.357342   4.198247   3.493199
    11  O    2.403051   3.298069   2.801523   3.688979   2.943417
    12  H    3.263085   4.032018   3.673818   4.601659   3.843850
                    6          7          8          9         10
     6  H    0.000000
     7  H    1.770228   0.000000
     8  H    1.781501   1.783593   0.000000
     9  C    2.789069   3.473042   2.785609   0.000000
    10  O    3.477376   4.396399   3.905103   1.232829   0.000000
    11  O    3.302900   3.950245   2.655593   1.372507   2.287191
    12  H    4.045288   4.884848   3.553460   1.944532   2.381575
                   11         12
    11  O    0.000000
    12  H    0.982212   0.000000
 Stoichiometry    C3H6O3
 Framework group  C1[X(C3H6O3)]
 Deg. of freedom    30
 Full point group                 C1      NOp   1
 Largest Abelian subgroup         C1      NOp   1
 Largest concise Abelian subgroup C1      NOp   1
                         Standard orientation:                         
 ---------------------------------------------------------------------
 Center     Atomic      Atomic             Coordinates (Angstroms)
 Number     Number       Type             X           Y           Z
 ---------------------------------------------------------------------
      1          6           0       -0.652855   -0.077209   -0.471392
      2          1           0       -0.706292   -0.169102   -1.563019
      3          8           0       -1.146885   -1.290648    0.167993
      4          1           0       -2.108054   -1.376899    0.004710
      5          6           0       -1.415156    1.162387    0.007190
      6          1           0       -1.011306    2.075493   -0.444126
      7          1           0       -2.470999    1.087516   -0.280094
      8          1           0       -1.345228    1.242181    1.094650
      9          6           0        0.823458   -0.002021   -0.133512
     10          8           0        1.735548    0.007205   -0.962893
     11          8           0        1.048350    0.098477    1.216710
     12          1           0        2.013091    0.121591    1.399687
 ---------------------------------------------------------------------
 Rotational constants (GHZ):           5.0773661           2.6647673           2.6048198
 Standard basis: 6-31G(d) (6D, 7F)
 There are   102 symmetry adapted cartesian basis functions of A   symmetry.
 There are   102 symmetry adapted basis functions of A   symmetry.
   102 basis functions,   192 primitive gaussians,   102 cartesian basis functions
    24 alpha electrons       24 beta electrons
       nuclear repulsion energy       246.3646675100 Hartrees.
 NAtoms=   12 NActive=   12 NUniq=   12 SFac= 1.00D+00 NAtFMM=   60 NAOKFM=F Big=F
 Integral buffers will be    131072 words long.
 Regular integral format.
 Two-electron integral symmetry is turned on.
 One-electron integrals computed using PRISM.
 NBasis=   102 RedAO= T EigKep=  3.38D-03  NBF=   102
 NBsUse=   102 1.00D-06 EigRej= -1.00D+00 NBFU=   102
 ExpMin= 1.61D-01 ExpMax= 5.48D+03 ExpMxC= 8.25D+02 IAcc=3 IRadAn=         5 AccDes= 0.00D+00
 Harris functional with IExCor=  402 and IRadAn=       5 diagonalized for initial guess.
 HarFok:  IExCor=  402 AccDes= 0.00D+00 IRadAn=         5 IDoV= 1 UseB2=F ITyADJ=14
 ICtDFT=  3500011 ScaDFX=  1.000000  1.000000  1.000000  1.000000
 FoFCou: FMM=F IPFlag=           0 FMFlag=      100000 FMFlg1=           0
         NFxFlg=           0 DoJE=T BraDBF=F KetDBF=T FulRan=T
         wScrn=  0.000000 ICntrl=       500 IOpCl=  0 I1Cent=   200000004 NGrid=           0
         NMat0=    1 NMatS0=      1 NMatT0=    0 NMatD0=    1 NMtDS0=    0 NMtDT0=    0
 Petite list used in FoFCou.
 Keep R1 ints in memory in canonical form, NReq=21214305.
 Requested convergence on RMS density matrix=1.00D-08 within 128 cycles.
 Requested convergence on MAX density matrix=1.00D-06.
 Requested convergence on             energy=1.00D-06.
 No special actions if energy rises.
 Integral accuracy reduced to 1.0D-05 until final iterations.
 Initial convergence to 1.0D-05 achieved.  Increase integral accuracy.
 SCF Done:  E(RB3LYP) =  -343.593272047     A.U. after   14 cycles
            NFock= 14  Conv=0.29D-08     -V/T= 2.0094
 DoSCS=F DFT=T ScalE2(SS,OS)=  1.000000  1.000000
 ExpMin= 1.61D-01 ExpMax= 5.48D+03 ExpMxC= 8.25D+02 IAcc=3 IRadAn=         5 AccDes= 0.00D+00
 HarFok:  IExCor=  205 AccDes= 0.00D+00 IRadAn=         5 IDoV=-2 UseB2=F ITyADJ=14
 ICtDFT= 12500011 ScaDFX=  1.000000  1.000000  1.000000  1.000000
 Range of M.O.s used for correlation:     7   102
 NBasis=   102 NAE=    24 NBE=    24 NFC=     6 NFV=     0
 NROrb=     96 NOA=    18 NOB=    18 NVA=    78 NVB=    78
 Keep R1, R2, and R3 ints in memory in canonical form, NReq=75112043.
 Orbital symmetries:
       Occupied  (A) (A) (A) (A) (A) (A) (A) (A) (A) (A) (A) (A)
                 (A) (A) (A) (A) (A) (A) (A) (A) (A) (A) (A) (A)
       Virtual   (A) (A) (A) (A) (A) (A) (A) (A) (A) (A) (A) (A)
                 (A) (A) (A) (A) (A) (A) (A) (A) (A) (A) (A) (A)
                 (A) (A) (A) (A) (A) (A) (A) (A) (A) (A) (A) (A)
                 (A) (A) (A) (A) (A) (A) (A) (A) (A) (A) (A) (A)
                 (A) (A) (A) (A) (A) (A) (A) (A) (A) (A) (A) (A)
                 (A) (A) (A) (A) (A) (A) (A) (A) (A) (A) (A) (A)
                 (A) (A) (A) (A) (A) (A)
    64 initial guesses have been made.
 Convergence on wavefunction:    0.001000000000000
 Iteration     1 Dimension    64 NMult     0 NNew     64
 CISAX will form    64 AO SS matrices at one time.
 New state      3 was old state      4
 New state      4 was old state      6
 New state      6 was old state      7
 New state      7 was old state      9
 New state      9 was old state     10
 New state     10 was old state     11
 New state     11 was old state     12
 New state     12 was old state     14
 New state     13 was old state     15
 New state     14 was old state     13
 New state     15 was old state     16
 New state     16 was old state     22
 Iteration     2 Dimension    96 NMult    64 NNew     32
 New state      9 was old state     11
 New state     10 was old state      9
 New state     11 was old state     10
 Iteration     3 Dimension   128 NMult    96 NNew     32
 Iteration     4 Dimension   160 NMult   128 NNew     32
 Iteration     5 Dimension   166 NMult   160 NNew      6
 ***********************************************************************
 Excited states from <AA,BB:AA,BB> singles matrix:
 ***********************************************************************
 
 Ground to excited state transition densities written to RWF  633
 Ground to excited state transition electric dipole moments (Au):
       state          X           Y           Z        Dip. S.      Osc.
         1         0.0465     -0.1081      0.0026      0.0139      0.0018
         2         0.0802     -0.0404      0.0551      0.0111      0.0017
         3        -0.2834     -0.0133      0.2257      0.1314      0.0248
         4         0.1560     -0.1133     -0.0642      0.0413      0.0080
         5        -0.0257      0.0848      0.0207      0.0083      0.0016
         6         0.2033      0.0779     -0.5971      0.4039      0.0837
         7         0.2604     -0.1095      0.0448      0.0818      0.0173
         8        -0.1610     -0.1602     -0.2337      0.1062      0.0226
         9         0.2132      0.0471      0.3912      0.2007      0.0434
        10        -0.0554     -0.0147      0.0712      0.0084      0.0018
        11         0.0345     -0.0173      0.0594      0.0050      0.0011
        12        -0.0701     -0.0610     -0.1389      0.0279      0.0067
        13         0.5386     -0.2350     -0.0132      0.3455      0.0835
        14         0.2325     -0.1408      0.0634      0.0779      0.0189
        15         0.1971      0.0242     -0.1008      0.0496      0.0122
        16         0.0790     -0.0355      0.0330      0.0086      0.0021
 Ground to excited state transition velocity dipole moments (Au):
       state          X           Y           Z        Dip. S.      Osc.
         1        -0.0086      0.0247     -0.0013      0.0007      0.0023
         2        -0.0142      0.0004     -0.0337      0.0013      0.0039
         3         0.0703      0.0128     -0.0527      0.0079      0.0185
         4        -0.0498      0.0558      0.0546      0.0086      0.0197
         5         0.0098     -0.0434     -0.0010      0.0020      0.0045
         6        -0.0664     -0.0249      0.1721      0.0347      0.0744
         7        -0.0827      0.0464     -0.0130      0.0092      0.0192
         8         0.0543      0.0581      0.0590      0.0098      0.0205
         9        -0.0694     -0.0134     -0.1433      0.0255      0.0525
        10         0.0173      0.0413     -0.0175      0.0023      0.0047
        11        -0.0092      0.0061     -0.0054      0.0002      0.0003
        12         0.0204      0.0459      0.0382      0.0040      0.0074
        13        -0.1879      0.0779      0.0011      0.0414      0.0761
        14        -0.1003      0.0678     -0.0307      0.0156      0.0286
        15        -0.0711      0.0013      0.0475      0.0073      0.0132
        16        -0.0277      0.0243     -0.0048      0.0014      0.0025
 Ground to excited state transition magnetic dipole moments (Au):
       state          X           Y           Z
         1         0.6704      0.0250     -0.4963
         2         0.0176     -0.0965      0.2423
         3         0.0140     -0.2480     -0.1531
         4        -0.4248      0.4615     -0.3383
         5        -0.1310     -0.0275      0.0529
         6         0.1139     -0.6596      0.1584
         7        -0.5555     -0.0393     -0.9089
         8        -0.3652     -0.3138     -0.0854
         9         0.0517      0.3455      0.0818
        10        -0.2830      0.0552      0.3307
        11        -0.0784      0.0630      0.1192
        12        -0.0935     -0.3087     -0.3153
        13         0.2892      0.0074      0.3515
        14         0.0370     -0.2529     -0.9265
        15         0.2141      0.3461      0.0454
        16        -0.2924     -0.2326      0.0917
 Ground to excited state transition velocity quadrupole moments (Au):
       state          XX          YY          ZZ          XY          XZ          YZ
         1         0.0143      0.0124     -0.0009     -0.0814      0.0125     -0.0251
         2        -0.0074      0.1142     -0.0199     -0.0317      0.0670      0.0760
         3         0.5078     -0.1126     -0.0106      0.0033     -0.2404     -0.0399
         4        -0.0289     -0.1257      0.1704     -0.1594     -0.1290     -0.1784
         5         0.0158      0.2352     -0.1001     -0.0180     -0.0823      0.0487
         6         0.1551      0.1055      0.0579      0.2190      0.6585      0.0222
         7         0.2224     -0.0174     -0.0923     -0.2297     -0.0149      0.1231
         8        -0.1623     -0.0152      0.1576     -0.1148      0.3724      0.1749
         9         0.0692      0.1143     -0.1054      0.1372     -0.2713      0.1223
        10         0.0505      0.0363     -0.0962      0.2182     -0.1645      0.1535
        11        -0.1220      0.1354     -0.0553     -0.0329     -0.2223     -0.0528
        12         0.1573     -0.0988      0.0104      0.1865      0.2403      0.1255
        13         0.1554      0.1971     -0.0955     -0.2810      0.1371     -0.0792
        14         0.6949      0.0323     -0.2876      0.0549      0.0595      0.0013
        15         0.0231      0.0823     -0.2141      0.0134     -0.0379     -0.1041
        16         0.0213      0.0612     -0.2010     -0.1141      0.0760     -0.0616
 <0|del|b> * <b|rxdel|0> + <0|del|b> * <b|delr+rdel|0>
 Rotatory Strengths (R) in cgs (10**-40 erg-esu-cm/Gauss)
       state          XX          YY          ZZ    R(velocity)    E-M Angle
         1         1.8945     -9.0874     -9.1532     -5.4487      101.95
         2       -11.1222    -16.3844      1.2627     -8.7480      152.23
         3         9.7211      8.0096     -3.0992      4.8772       76.91
         4         7.0494     24.6593     37.5342     23.0810       64.48
         5        -2.9244     -1.0675      3.6400     -0.1173       91.30
         6       111.3041    -22.1608     -6.9016     27.4139       73.61
         7        15.1888     49.6291     59.6860     41.5013       56.76
         8       -57.3325     -9.5247    -28.7356    -31.8643      152.87
         9       -43.2255     -4.5216      4.2626    -14.4948      110.35
        10        -0.5996     -4.5284    -12.9617     -6.0299      113.50
        11         1.3319      0.3989     -0.7706      0.3200       76.04
        12       -29.7781    -18.2889     -7.5191    -18.5287      171.09
        13        -9.7731    -37.8063    -56.5660    -34.7151      125.19
        14         5.4538     25.5758    -16.2274      4.9340       86.36
        15         3.1732     -6.0312    -21.2666     -8.0415      111.08
        16        -6.9761      8.3063      2.4306      1.2536       81.98
 1/2[<0|r|b>*<b|rxdel|0> + (<0|rxdel|b>*<b|r|0>)*]
 Rotatory Strengths (R) in cgs (10**-40 erg-esu-cm/Gauss)
       state          XX          YY          ZZ     R(length)
         1       -22.0577      1.9137      0.9229     -6.4071
         2        -0.9977     -2.7557     -9.4452     -4.3996
         3         2.8141     -2.3378     24.4285      8.3016
         4        46.8674     36.9673    -15.3577     22.8257
         5        -2.3780      1.6487     -0.7740     -0.5011
         6       -16.3790     36.3314     66.8647     28.9390
         7       102.2862     -3.0415     28.8000     42.6816
         8       -41.5826    -35.5441    -14.1055    -30.4107
         9        -7.7917    -11.5137    -22.6421    -13.9825
        10       -11.0847      0.5734    -16.6526     -9.0546
        11         1.9145      0.7710     -5.0083     -0.7743
        12        -4.6364    -13.3193    -30.9610    -16.3056
        13      -110.1555      1.2344      3.2849    -35.2120
        14        -6.0906    -25.1814     41.5469      3.4250
        15       -29.8498     -5.9155      3.2384    -10.8423
        16        16.3365     -5.8430     -2.1369      2.7856
  1/2[<0|del|b>*<b|r|0> + (<0|r|b>*<b|del|0>)*] (Au)
       state          X           Y           Z        Dip. S.   Osc.(frdel)
         1        -0.0004     -0.0027     -0.0000      0.0031      0.0020
         2        -0.0011     -0.0000     -0.0019      0.0030      0.0020
         3        -0.0199     -0.0002     -0.0119      0.0320      0.0213
         4        -0.0078     -0.0063     -0.0035      0.0176      0.0117
         5        -0.0003     -0.0037     -0.0000      0.0040      0.0026
         6        -0.0135     -0.0019     -0.1028      0.1182      0.0788
         7        -0.0215     -0.0051     -0.0006      0.0272      0.0181
         8        -0.0087     -0.0093     -0.0138      0.0319      0.0212
         9        -0.0148     -0.0006     -0.0561      0.0715      0.0477
        10        -0.0010     -0.0006     -0.0012      0.0028      0.0019
        11        -0.0003     -0.0001     -0.0003      0.0007      0.0005
        12        -0.0014     -0.0028     -0.0053      0.0095      0.0064
        13        -0.1012     -0.0183     -0.0000      0.1195      0.0797
        14        -0.0233     -0.0095     -0.0019      0.0348      0.0232
        15        -0.0140      0.0000     -0.0048      0.0188      0.0125
        16        -0.0022     -0.0009     -0.0002      0.0032      0.0021

 Excitation energies and oscillator strengths:
 
 Excited State   1:      Singlet-A      5.3233 eV  232.91 nm  f=0.0018  <S**2>=0.000
      23 -> 25        -0.23398
      24 -> 25         0.66242
 This state for optimization and/or second-order correction.
 Total Energy, E(TD-HF/TD-DFT) =  -343.397645412    
 Copying the excited state density for this state as the 1-particle RhoCI density.
 
 Excited State   2:      Singlet-A      6.2061 eV  199.78 nm  f=0.0017  <S**2>=0.000
      23 -> 25         0.66464
      24 -> 25         0.23559
 
 Excited State   3:      Singlet-A      7.7147 eV  160.71 nm  f=0.0248  <S**2>=0.000
      21 -> 25        -0.10664
      22 -> 25         0.47487
      23 -> 27        -0.10685
      24 -> 26         0.46796
      24 -> 27         0.12892
 
 Excited State   4:      Singlet-A      7.9025 eV  156.89 nm  f=0.0080  <S**2>=0.000
      21 -> 25         0.22130
      22 -> 25        -0.12248
      23 -> 26         0.52293
      23 -> 27        -0.23201
      24 -> 26         0.25407
      24 -> 27        -0.18851
 
 Excited State   5:      Singlet-A      7.9409 eV  156.13 nm  f=0.0016  <S**2>=0.000
      20 -> 25         0.11707
      21 -> 25         0.64823
      22 -> 25         0.10458
      23 -> 26        -0.18134
      24 -> 27         0.11985
 
 Excited State   6:      Singlet-A      8.4528 eV  146.68 nm  f=0.0837  <S**2>=0.000
      20 -> 25        -0.12032
      22 -> 25        -0.39944
      23 -> 26        -0.28366
      23 -> 27         0.13312
      24 -> 26         0.44247
 
 Excited State   7:      Singlet-A      8.6377 eV  143.54 nm  f=0.0173  <S**2>=0.000
      18 -> 25        -0.15253
      20 -> 25         0.59981
      23 -> 26        -0.12099
      24 -> 27        -0.27465
 
 Excited State   8:      Singlet-A      8.6780 eV  142.87 nm  f=0.0226  <S**2>=0.000
      20 -> 25         0.24798
      22 -> 25        -0.15816
      22 -> 26         0.14625
      23 -> 26         0.20805
      23 -> 27         0.15522
      24 -> 27         0.54231
 
 Excited State   9:      Singlet-A      8.8231 eV  140.52 nm  f=0.0434  <S**2>=0.000
      22 -> 25         0.16308
      23 -> 26         0.20260
      23 -> 27         0.59965
      24 -> 27        -0.20790
 
 Excited State  10:      Singlet-A      8.9489 eV  138.55 nm  f=0.0018  <S**2>=0.000
      22 -> 26         0.60099
      22 -> 27         0.31084
      23 -> 27        -0.12814
 
 Excited State  11:      Singlet-A      9.2515 eV  134.02 nm  f=0.0011  <S**2>=0.000
      19 -> 25         0.69515
 
 Excited State  12:      Singlet-A      9.7344 eV  127.37 nm  f=0.0067  <S**2>=0.000
      18 -> 25        -0.12003
      21 -> 26         0.22213
      22 -> 26        -0.30115
      22 -> 27         0.57144
 
 Excited State  13:      Singlet-A      9.8597 eV  125.75 nm  f=0.0835  <S**2>=0.000
      17 -> 25        -0.27163
      18 -> 25         0.53828
      20 -> 25         0.16488
      22 -> 27         0.12573
      24 -> 28        -0.23029
 
 Excited State  14:      Singlet-A      9.9034 eV  125.19 nm  f=0.0189  <S**2>=0.000
      21 -> 26         0.61839
      21 -> 27        -0.20175
      22 -> 27        -0.19992
 
 Excited State  15:      Singlet-A     10.0436 eV  123.45 nm  f=0.0122  <S**2>=0.000
      17 -> 25        -0.15514
      18 -> 25         0.17327
      23 -> 28         0.29845
      23 -> 30         0.12008
      24 -> 28         0.53358
      24 -> 29        -0.11885
      24 -> 30         0.12087
 
 Excited State  16:      Singlet-A     10.2087 eV  121.45 nm  f=0.0021  <S**2>=0.000
      17 -> 25         0.26931
      23 -> 28         0.40567
      23 -> 30         0.25537
      24 -> 28        -0.27452
      24 -> 29         0.14808
      24 -> 30         0.26432
 SavETr:  write IOETrn=   770 NScale= 10 NData=  16 NLR=1 NState=   16 LETran=     298.

 **********************************************************************

            Population analysis using the SCF Density.

 **********************************************************************

 Orbital symmetries:
       Occupied  (A) (A) (A) (A) (A) (A) (A) (A) (A) (A) (A) (A)
                 (A) (A) (A) (A) (A) (A) (A) (A) (A) (A) (A) (A)
       Virtual   (A) (A) (A) (A) (A) (A) (A) (A) (A) (A) (A) (A)
                 (A) (A) (A) (A) (A) (A) (A) (A) (A) (A) (A) (A)
                 (A) (A) (A) (A) (A) (A) (A) (A) (A) (A) (A) (A)
                 (A) (A) (A) (A) (A) (A) (A) (A) (A) (A) (A) (A)
                 (A) (A) (A) (A) (A) (A) (A) (A) (A) (A) (A) (A)
                 (A) (A) (A) (A) (A) (A) (A) (A) (A) (A) (A) (A)
                 (A) (A) (A) (A) (A) (A)
 The electronic state is 1-A.
 Alpha  occ. eigenvalues --  -19.19737 -19.15546 -19.14352 -10.32580 -10.26016
 Alpha  occ. eigenvalues --  -10.19435  -1.09415  -1.01666  -1.00690  -0.77801
 Alpha  occ. eigenvalues --   -0.67878  -0.60313  -0.51733  -0.48573  -0.47693
 Alpha  occ. eigenvalues --   -0.45065  -0.42580  -0.40874  -0.39073  -0.38073
 Alpha  occ. eigenvalues --   -0.34638  -0.31560  -0.28232  -0.27263
 Alpha virt. eigenvalues --   -0.00964   0.05846   0.07876   0.13241   0.14451
 Alpha virt. eigenvalues --    0.14712   0.17445   0.19243   0.20883   0.23825
 Alpha virt. eigenvalues --    0.31132   0.34939   0.50749   0.53028   0.55535
 Alpha virt. eigenvalues --    0.57021   0.60054   0.63051   0.64038   0.68650
 Alpha virt. eigenvalues --    0.74848   0.76830   0.78953   0.79703   0.85542
 Alpha virt. eigenvalues --    0.87637   0.88159   0.90437   0.92240   0.95138
 Alpha virt. eigenvalues --    0.97420   0.99678   1.02848   1.03267   1.07008
 Alpha virt. eigenvalues --    1.12034   1.17277   1.28111   1.32050   1.40980
 Alpha virt. eigenvalues --    1.43182   1.47105   1.50388   1.63914   1.68799
 Alpha virt. eigenvalues --    1.72640   1.74139   1.76325   1.78058   1.81832
 Alpha virt. eigenvalues --    1.83712   1.84504   1.88615   1.94102   2.01514
 Alpha virt. eigenvalues --    2.02922   2.12200   2.14177   2.22770   2.26651
 Alpha virt. eigenvalues --    2.32152   2.35223   2.43552   2.46355   2.50982
 Alpha virt. eigenvalues --    2.61532   2.64054   2.72956   2.81789   2.86535
 Alpha virt. eigenvalues --    2.95548   3.04984   3.70538   3.81358   4.08810
 Alpha virt. eigenvalues --    4.20305   4.38414   4.57246
          Condensed to atoms (all electrons):
               1          2          3          4          5          6
     1  C    4.920333   0.371940   0.221597  -0.017787   0.317605  -0.022168
     2  H    0.371940   0.606111  -0.032736  -0.003508  -0.052292   0.001827
     3  O    0.221597  -0.032736   8.283224   0.226861  -0.041622   0.003384
     4  H   -0.017787  -0.003508   0.226861   0.395262  -0.005170  -0.000090
     5  C    0.317605  -0.052292  -0.041622  -0.005170   5.205625   0.345530
     6  H   -0.022168   0.001827   0.003384  -0.000090   0.345530   0.561943
     7  H   -0.026447  -0.005037  -0.002468   0.004606   0.365029  -0.028037
     8  H   -0.027171   0.005267   0.002097  -0.000439   0.368124  -0.023445
     9  C    0.320651  -0.054737  -0.037901   0.005601  -0.025325  -0.000997
    10  O   -0.065283   0.003989   0.000441  -0.000105   0.001006   0.000394
    11  O   -0.093004   0.003663   0.003640  -0.000091   0.000154   0.000078
    12  H    0.009224  -0.000263  -0.000309   0.000031  -0.000375  -0.000039
               7          8          9         10         11         12
     1  C   -0.026447  -0.027171   0.320651  -0.065283  -0.093004   0.009224
     2  H   -0.005037   0.005267  -0.054737   0.003989   0.003663  -0.000263
     3  O   -0.002468   0.002097  -0.037901   0.000441   0.003640  -0.000309
     4  H    0.004606  -0.000439   0.005601  -0.000105  -0.000091   0.000031
     5  C    0.365029   0.368124  -0.025325   0.001006   0.000154  -0.000375
     6  H   -0.028037  -0.023445  -0.000997   0.000394   0.000078  -0.000039
     7  H    0.569693  -0.028166   0.004082  -0.000069   0.000050   0.000013
     8  H   -0.028166   0.522799  -0.010183   0.000060   0.006282  -0.000235
     9  C    0.004082  -0.010183   4.389748   0.563277   0.264977  -0.005535
    10  O   -0.000069   0.000060   0.563277   8.037070  -0.083911   0.008481
    11  O    0.000050   0.006282   0.264977  -0.083911   8.246213   0.217516
    12  H    0.000013  -0.000235  -0.005535   0.008481   0.217516   0.356917
 Mulliken charges:
               1
     1  C    0.090511
     2  H    0.155774
     3  O   -0.626207
     4  H    0.394830
     5  C   -0.478289
     6  H    0.161621
     7  H    0.146750
     8  H    0.185011
     9  C    0.586340
    10  O   -0.465350
    11  O   -0.565566
    12  H    0.414575
 Sum of Mulliken charges =  -0.00000
 Mulliken charges with hydrogens summed into heavy atoms:
               1
     1  C    0.246285
     3  O   -0.231377
     5  C    0.015094
     9  C    0.586340
    10  O   -0.465350
    11  O   -0.150991
 Electronic spatial extent (au):  <R**2>=            565.8958
 Charge=             -0.0000 electrons
 Dipole moment (field-independent basis, Debye):
    X=             -2.0120    Y=              1.1136    Z=              0.6487  Tot=              2.3894
 Quadrupole moment (field-independent basis, Debye-Ang):
   XX=            -29.2475   YY=            -35.8622   ZZ=            -36.5134
   XY=              1.0990   XZ=              6.8341   YZ=              0.7876
 Traceless Quadrupole moment (field-independent basis, Debye-Ang):
   XX=              4.6268   YY=             -1.9878   ZZ=             -2.6390
   XY=              1.0990   XZ=              6.8341   YZ=              0.7876
 Octapole moment (field-independent basis, Debye-Ang**2):
  XXX=             -5.5034  YYY=             -1.8180  ZZZ=              4.7274  XYY=              0.3754
  XXY=             -7.6097  XXZ=             13.8885  XZZ=              2.4518  YZZ=             -0.8873
  YYZ=             -0.4669  XYZ=             -0.4944
 Hexadecapole moment (field-independent basis, Debye-Ang**3):
 XXXX=           -320.2382 YYYY=           -165.5203 ZZZZ=           -137.2785 XXXY=             27.9751
 XXXZ=             34.1533 YYYX=             11.4574 YYYZ=             -1.2184 ZZZX=             11.8378
 ZZZY=              1.7485 XXYY=            -79.0499 XXZZ=            -77.5560 YYZZ=            -50.9733
 XXYZ=              1.8105 YYXZ=              0.7227 ZZXY=              2.7588
 N-N= 2.463646675100D+02 E-N=-1.298199941212D+03  KE= 3.404035749567D+02
 Unable to Open any file for archive entry.
 1\1\GINC-CCC255\SP\RB3LYP TD-FC\6-31G(d)\C3H6O3\ROOT\21-Feb-2025\0\\# 
 td=(nstat=16) b3lyp/6-31g(d)\\lactic_acid | No.4\\0,1\C,0,-0.652855,-0
 .077209,-0.471392\H,0,-0.706292,-0.169102,-1.563019\O,0,-1.146885,-1.2
 90648,0.167993\H,0,-2.108054,-1.376899,0.00471\C,0,-1.415156,1.162387,
 0.00719\H,0,-1.011306,2.075493,-0.444126\H,0,-2.470999,1.087516,-0.280
 094\H,0,-1.345228,1.242181,1.09465\C,0,0.823458,-0.002021,-0.133512\O,
 0,1.735548,0.007205,-0.962893\O,0,1.04835,0.098477,1.21671\H,0,2.01309
 1,0.121591,1.399687\\Version=ES64L-G16RevC.02\State=1-A\HF=-343.593272
 \RMSD=2.861e-09\PG=C01 [X(C3H6O3)]\\@
 The archive entry for this job was punched.


 TOWERING GENIUS DISDAINS A BEATEN PATH.  IT SEEKS 
 REGIONS HITHERTO UNEXPLORED.

                                -- ABRAHAM LINCOLN
 Job cpu time:       0 days  0 hours  3 minutes 55.2 seconds.
 Elapsed time:       0 days  0 hours  0 minutes 33.8 seconds.
 File lengths (MBytes):  RWF=    178 Int=      0 D2E=      0 Chk=      8 Scr=      1
 Normal termination of Gaussian 16 at Fri Feb 21 14:05:13 2025.
