 Entering Gaussian System, Link 0=/apl/gaussian/16c02/g16/._.g16
 Initial command:
 /apl/gaussian/16c02/g16/l1.exe "/lwork/users/ux8/8286858.ccpbs1/gaussian/Gau-1930362.inp" -scrdir="/lwork/users/ux8/8286858.ccpbs1/gaussian/"
 Default CPUs for threads: 96,97,98,99,100,101,102,103
 Default is to use a total of   8 processors:
                                8 via shared-memory
                                1 via Linda
 Entering Link 1 = /apl/gaussian/16c02/g16/l1.exe PID=   1930363.
  
 Copyright (c) 1988-2021, Gaussian, Inc.  All Rights Reserved.
  
 This is part of the Gaussian(R) 16 program.  It is based on
 the Gaussian(R) 09 system (copyright 2009, Gaussian, Inc.),
 the Gaussian(R) 03 system (copyright 2003, Gaussian, Inc.),
 the Gaussian(R) 98 system (copyright 1998, Gaussian, Inc.),
 the Gaussian(R) 94 system (copyright 1995, Gaussian, Inc.),
 the Gaussian 92(TM) system (copyright 1992, Gaussian, Inc.),
 the Gaussian 90(TM) system (copyright 1990, Gaussian, Inc.),
 the Gaussian 88(TM) system (copyright 1988, Gaussian, Inc.),
 the Gaussian 86(TM) system (copyright 1986, Carnegie Mellon
 University), and the Gaussian 82(TM) system (copyright 1983,
 Carnegie Mellon University). Gaussian is a federally registered
 trademark of Gaussian, Inc.
  
 This software contains proprietary and confidential information,
 including trade secrets, belonging to Gaussian, Inc.
  
 This software is provided under written license and may be
 used, copied, transmitted, or stored only in accord with that
 written license.
  
 The following legend is applicable only to US Government
 contracts under FAR:
  
                    RESTRICTED RIGHTS LEGEND
  
 Use, reproduction and disclosure by the US Government is
 subject to restrictions as set forth in subparagraphs (a)
 and (c) of the Commercial Computer Software - Restricted
 Rights clause in FAR 52.227-19.
  
 Gaussian, Inc.
 340 Quinnipiac St., Bldg. 40, Wallingford CT 06492
  
  
 ---------------------------------------------------------------
 Warning -- This program may not be used in any manner that
 competes with the business of Gaussian, Inc. or will provide
 assistance to any competitor of Gaussian, Inc.  The licensee
 of this program is prohibited from giving any competitor of
 Gaussian, Inc. access to this program.  By using this program,
 the user acknowledges that Gaussian, Inc. is engaged in the
 business of creating and licensing software in the field of
 computational chemistry and represents and warrants to the
 licensee that it is not a competitor of Gaussian, Inc. and that
 it will not use this program in any manner prohibited above.
 ---------------------------------------------------------------
  

 Cite this work as:
 Gaussian 16, Revision C.02,
 M. J. Frisch, G. W. Trucks, H. B. Schlegel, G. E. Scuseria, 
 M. A. Robb, J. R. Cheeseman, G. Scalmani, V. Barone, 
 G. A. Petersson, H. Nakatsuji, X. Li, M. Caricato, A. V. Marenich, 
 J. Bloino, B. G. Janesko, R. Gomperts, B. Mennucci, H. P. Hratchian, 
 J. V. Ortiz, A. F. Izmaylov, J. L. Sonnenberg, D. Williams-Young, 
 F. Ding, F. Lipparini, F. Egidi, J. Goings, B. Peng, A. Petrone, 
 T. Henderson, D. Ranasinghe, V. G. Zakrzewski, J. Gao, N. Rega, 
 G. Zheng, W. Liang, M. Hada, M. Ehara, K. Toyota, R. Fukuda, 
 J. Hasegawa, M. Ishida, T. Nakajima, Y. Honda, O. Kitao, H. Nakai, 
 T. Vreven, K. Throssell, J. A. Montgomery, Jr., J. E. Peralta, 
 F. Ogliaro, M. J. Bearpark, J. J. Heyd, E. N. Brothers, K. N. Kudin, 
 V. N. Staroverov, T. A. Keith, R. Kobayashi, J. Normand, 
 K. Raghavachari, A. P. Rendell, J. C. Burant, S. S. Iyengar, 
 J. Tomasi, M. Cossi, J. M. Millam, M. Klene, C. Adamo, R. Cammi, 
 J. W. Ochterski, R. L. Martin, K. Morokuma, O. Farkas, 
 J. B. Foresman, and D. J. Fox, Gaussian, Inc., Wallingford CT, 2019.
 
 ******************************************
 Gaussian 16:  ES64L-G16RevC.02  7-Dec-2021
                21-Feb-2025 
 ******************************************
 %chk=lactic_acid.001.tddft.chk
 %mem=9600MB
 SetSPE:  set environment variable "OMP_PROC_BIND" = "true"
 SetSPE:  set environment variable "OMP_PLACES" = "{96},{97},{98},{99},{100},{101},{102},{103}"
 ------------------------------
 # td=(nstat=16) b3lyp/6-31g(d)
 ------------------------------
 1/38=1,172=1/1;
 2/12=2,17=6,18=5,40=1/2;
 3/5=1,6=6,7=1,11=9,25=1,30=1,74=-5/1,2,3,8;
 4//1;
 5/5=2,38=5/2;
 8/6=1,10=2,108=16/1;
 9/41=16,42=1,70=2/14;
 6/7=2,8=2,9=2,10=2/1;
 99/5=1,9=1/99;
 ------------------
 lactic_acid | No.1
 ------------------
 Symbolic Z-matrix:
 Charge =  0 Multiplicity = 1
 C                    -0.66008  -0.27208  -0.37458 
 H                    -0.72329  -0.81591  -1.32541 
 O                    -1.06755  -1.14699   0.73033 
 H                    -1.94797  -1.52784   0.5361 
 C                    -1.50054   0.99964  -0.40568 
 H                    -1.16336   1.68057  -1.19506 
 H                    -2.54988   0.74896  -0.60123 
 H                    -1.42898   1.51603   0.55325 
 C                     0.82223  -0.04696  -0.12363 
 O                     1.72244  -0.77133  -0.54896 
 O                     1.07136   1.06465   0.64727 
 H                     2.03384   1.14397   0.82648 
 
                          Input orientation:                          
 ---------------------------------------------------------------------
 Center     Atomic      Atomic             Coordinates (Angstroms)
 Number     Number       Type             X           Y           Z
 ---------------------------------------------------------------------
      1          6           0       -0.660084   -0.272083   -0.374577
      2          1           0       -0.723289   -0.815913   -1.325405
      3          8           0       -1.067553   -1.146988    0.730333
      4          1           0       -1.947972   -1.527836    0.536099
      5          6           0       -1.500539    0.999635   -0.405676
      6          1           0       -1.163360    1.680565   -1.195058
      7          1           0       -2.549877    0.748956   -0.601226
      8          1           0       -1.428977    1.516030    0.553246
      9          6           0        0.822234   -0.046959   -0.123625
     10          8           0        1.722435   -0.771331   -0.548963
     11          8           0        1.071364    1.064654    0.647272
     12          1           0        2.033842    1.143968    0.826482
 ---------------------------------------------------------------------
                    Distance matrix (angstroms):
                    1          2          3          4          5
     1  C    0.000000
     2  H    1.097187   0.000000
     3  O    1.467077   2.110495   0.000000
     4  H    2.016160   2.339205   0.978729   0.000000
     5  C    1.524663   2.178585   2.466979   2.734090   0.000000
     6  H    2.176996   2.538317   3.422187   3.729123   1.095664
     7  H    2.159909   2.511906   2.750443   2.615259   1.096444
     8  H    2.156247   3.076570   2.693260   3.087842   1.091474
     9  C    1.520172   2.103380   2.347467   3.209716   2.563237
    10  O    2.440503   2.566401   3.092208   3.901480   3.680274
    11  O    2.414323   3.263245   3.077861   3.981175   2.779858
    12  H    3.271847   4.009180   3.856990   4.803926   3.745784
                    6          7          8          9         10
     6  H    0.000000
     7  H    1.772840   0.000000
     8  H    1.776004   1.782589   0.000000
     9  C    2.841635   3.497530   2.822949   0.000000
    10  O    3.841490   4.535047   4.047009   1.231255   0.000000
    11  O    2.960999   3.843410   2.542496   1.375511   2.285982
    12  H    3.820558   4.817143   3.493452   1.946537   2.378486
                   11         12
    11  O    0.000000
    12  H    0.982227   0.000000
 Stoichiometry    C3H6O3
 Framework group  C1[X(C3H6O3)]
 Deg. of freedom    30
 Full point group                 C1      NOp   1
 Largest Abelian subgroup         C1      NOp   1
 Largest concise Abelian subgroup C1      NOp   1
                         Standard orientation:                         
 ---------------------------------------------------------------------
 Center     Atomic      Atomic             Coordinates (Angstroms)
 Number     Number       Type             X           Y           Z
 ---------------------------------------------------------------------
      1          6           0        0.660084   -0.272083    0.374577
      2          1           0        0.723289   -0.815913    1.325405
      3          8           0        1.067553   -1.146988   -0.730333
      4          1           0        1.947972   -1.527836   -0.536099
      5          6           0        1.500539    0.999635    0.405676
      6          1           0        1.163360    1.680565    1.195058
      7          1           0        2.549877    0.748956    0.601226
      8          1           0        1.428977    1.516030   -0.553246
      9          6           0       -0.822234   -0.046959    0.123625
     10          8           0       -1.722435   -0.771331    0.548963
     11          8           0       -1.071364    1.064654   -0.647272
     12          1           0       -2.033842    1.143968   -0.826482
 ---------------------------------------------------------------------
 Rotational constants (GHZ):           5.0438528           2.9507815           2.3588718
 Standard basis: 6-31G(d) (6D, 7F)
 There are   102 symmetry adapted cartesian basis functions of A   symmetry.
 There are   102 symmetry adapted basis functions of A   symmetry.
   102 basis functions,   192 primitive gaussians,   102 cartesian basis functions
    24 alpha electrons       24 beta electrons
       nuclear repulsion energy       246.1209226818 Hartrees.
 NAtoms=   12 NActive=   12 NUniq=   12 SFac= 1.00D+00 NAtFMM=   60 NAOKFM=F Big=F
 Integral buffers will be    131072 words long.
 Regular integral format.
 Two-electron integral symmetry is turned on.
 One-electron integrals computed using PRISM.
 NBasis=   102 RedAO= T EigKep=  3.17D-03  NBF=   102
 NBsUse=   102 1.00D-06 EigRej= -1.00D+00 NBFU=   102
 ExpMin= 1.61D-01 ExpMax= 5.48D+03 ExpMxC= 8.25D+02 IAcc=3 IRadAn=         5 AccDes= 0.00D+00
 Harris functional with IExCor=  402 and IRadAn=       5 diagonalized for initial guess.
 HarFok:  IExCor=  402 AccDes= 0.00D+00 IRadAn=         5 IDoV= 1 UseB2=F ITyADJ=14
 ICtDFT=  3500011 ScaDFX=  1.000000  1.000000  1.000000  1.000000
 FoFCou: FMM=F IPFlag=           0 FMFlag=      100000 FMFlg1=           0
         NFxFlg=           0 DoJE=T BraDBF=F KetDBF=T FulRan=T
         wScrn=  0.000000 ICntrl=       500 IOpCl=  0 I1Cent=   200000004 NGrid=           0
         NMat0=    1 NMatS0=      1 NMatT0=    0 NMatD0=    1 NMtDS0=    0 NMtDT0=    0
 Petite list used in FoFCou.
 Keep R1 ints in memory in canonical form, NReq=21214305.
 Requested convergence on RMS density matrix=1.00D-08 within 128 cycles.
 Requested convergence on MAX density matrix=1.00D-06.
 Requested convergence on             energy=1.00D-06.
 No special actions if energy rises.
 Integral accuracy reduced to 1.0D-05 until final iterations.
 Initial convergence to 1.0D-05 achieved.  Increase integral accuracy.
 SCF Done:  E(RB3LYP) =  -343.591504668     A.U. after   14 cycles
            NFock= 14  Conv=0.31D-08     -V/T= 2.0094
 DoSCS=F DFT=T ScalE2(SS,OS)=  1.000000  1.000000
 ExpMin= 1.61D-01 ExpMax= 5.48D+03 ExpMxC= 8.25D+02 IAcc=3 IRadAn=         5 AccDes= 0.00D+00
 HarFok:  IExCor=  205 AccDes= 0.00D+00 IRadAn=         5 IDoV=-2 UseB2=F ITyADJ=14
 ICtDFT= 12500011 ScaDFX=  1.000000  1.000000  1.000000  1.000000
 Range of M.O.s used for correlation:     7   102
 NBasis=   102 NAE=    24 NBE=    24 NFC=     6 NFV=     0
 NROrb=     96 NOA=    18 NOB=    18 NVA=    78 NVB=    78
 Keep R1, R2, and R3 ints in memory in canonical form, NReq=75112043.
 Orbital symmetries:
       Occupied  (A) (A) (A) (A) (A) (A) (A) (A) (A) (A) (A) (A)
                 (A) (A) (A) (A) (A) (A) (A) (A) (A) (A) (A) (A)
       Virtual   (A) (A) (A) (A) (A) (A) (A) (A) (A) (A) (A) (A)
                 (A) (A) (A) (A) (A) (A) (A) (A) (A) (A) (A) (A)
                 (A) (A) (A) (A) (A) (A) (A) (A) (A) (A) (A) (A)
                 (A) (A) (A) (A) (A) (A) (A) (A) (A) (A) (A) (A)
                 (A) (A) (A) (A) (A) (A) (A) (A) (A) (A) (A) (A)
                 (A) (A) (A) (A) (A) (A) (A) (A) (A) (A) (A) (A)
                 (A) (A) (A) (A) (A) (A)
    64 initial guesses have been made.
 Convergence on wavefunction:    0.001000000000000
 Iteration     1 Dimension    64 NMult     0 NNew     64
 CISAX will form    64 AO SS matrices at one time.
 New state      3 was old state      4
 New state      4 was old state      5
 New state      5 was old state      6
 New state      6 was old state      7
 New state      7 was old state      9
 New state      9 was old state     11
 New state     11 was old state     12
 New state     12 was old state     13
 New state     13 was old state     14
 New state     14 was old state     15
 New state     15 was old state     16
 New state     16 was old state     20
 Iteration     2 Dimension    96 NMult    64 NNew     32
 New state      6 was old state      8
 New state      8 was old state      6
 New state      9 was old state     11
 New state     10 was old state      9
 New state     11 was old state     10
 Iteration     3 Dimension   128 NMult    96 NNew     32
 Iteration     4 Dimension   158 NMult   128 NNew     30
 Iteration     5 Dimension   160 NMult   158 NNew      2
 ***********************************************************************
 Excited states from <AA,BB:AA,BB> singles matrix:
 ***********************************************************************
 
 Ground to excited state transition densities written to RWF  633
 Ground to excited state transition electric dipole moments (Au):
       state          X           Y           Z        Dip. S.      Osc.
         1         0.0098      0.0647      0.0499      0.0068      0.0009
         2         0.1178      0.0068     -0.0054      0.0139      0.0021
         3         0.3056      0.1454     -0.1594      0.1399      0.0263
         4         0.0826      0.1422     -0.0020      0.0271      0.0052
         5        -0.1376     -0.2376     -0.0030      0.0754      0.0148
         6         0.0448      0.3562     -0.3936      0.2838      0.0588
         7         0.1117      0.2455     -0.0594      0.0763      0.0161
         8         0.1781     -0.1672     -0.0219      0.0601      0.0127
         9         0.2002     -0.3182      0.2162      0.1881      0.0407
        10         0.0699      0.0255      0.0047      0.0056      0.0012
        11         0.0299      0.0257      0.1096      0.0136      0.0030
        12        -0.3072     -0.1321     -0.0372      0.1132      0.0271
        13        -0.0053      0.0997     -0.1475      0.0317      0.0077
        14         0.0657      0.2660      0.0042      0.0751      0.0182
        15        -0.2904      0.1333     -0.0300      0.1030      0.0253
        16        -0.2627      0.0438      0.0522      0.0737      0.0183
 Ground to excited state transition velocity dipole moments (Au):
       state          X           Y           Z        Dip. S.      Osc.
         1         0.0043     -0.0097     -0.0133      0.0003      0.0010
         2        -0.0365     -0.0262      0.0134      0.0022      0.0065
         3        -0.0764     -0.0262      0.0462      0.0087      0.0205
         4        -0.0244     -0.0372     -0.0202      0.0024      0.0055
         5         0.0571      0.1018     -0.0108      0.0137      0.0310
         6        -0.0130     -0.0914      0.1088      0.0204      0.0437
         7        -0.0346     -0.0804      0.0056      0.0077      0.0162
         8        -0.0640      0.0463      0.0221      0.0067      0.0141
         9        -0.0589      0.1070     -0.0891      0.0228      0.0469
        10        -0.0238      0.0172      0.0207      0.0013      0.0026
        11        -0.0087     -0.0056     -0.0527      0.0029      0.0058
        12         0.1022      0.0341      0.0040      0.0116      0.0216
        13        -0.0070     -0.0466      0.0531      0.0050      0.0093
        14        -0.0290     -0.1001     -0.0226      0.0114      0.0209
        15         0.1205     -0.0470      0.0181      0.0171      0.0309
        16         0.0935     -0.0185     -0.0266      0.0098      0.0176
 Ground to excited state transition magnetic dipole moments (Au):
       state          X           Y           Z
         1         0.6439      0.3991     -0.2483
         2         0.0152     -0.0215     -0.2334
         3        -0.1096     -0.2723     -0.0880
         4         0.4436      0.0069      0.0138
         5         0.2701     -0.0032      0.4474
         6         0.2759      0.3221      0.8403
         7        -0.5341      0.7662     -0.3124
         8         0.1964      0.1351     -0.1379
         9         0.1051     -0.1782     -0.1422
        10         0.2962      0.2851     -0.1983
        11        -0.0215      0.1425     -0.2298
        12        -0.2947      0.4328     -0.3315
        13         0.2257     -0.0824     -0.2916
        14        -0.0289      0.3812      0.0589
        15        -0.0637     -0.6102      0.6558
        16         0.1410      0.0780     -0.0260
 Ground to excited state transition velocity quadrupole moments (Au):
       state          XX          YY          ZZ          XY          XZ          YZ
         1         0.0137      0.0067     -0.0277     -0.0570     -0.0216      0.0083
         2        -0.0144      0.1512     -0.0984      0.0288      0.0306      0.0140
         3         0.5063     -0.1028     -0.0641      0.2419     -0.1151     -0.0317
         4         0.0020      0.0355      0.1179      0.1400     -0.0755      0.0960
         5         0.2241     -0.3014      0.2034     -0.0063     -0.0103     -0.0219
         6        -0.0784     -0.2398      0.0130      0.7149     -0.3496      0.0427
         7        -0.1267     -0.1386      0.1954     -0.0045     -0.2281     -0.0330
         8        -0.2237      0.1153      0.0119     -0.0278      0.1053     -0.0851
         9        -0.0218     -0.1761      0.1341     -0.1342      0.2114     -0.0745
        10         0.1225      0.1156     -0.2075     -0.1044     -0.2499      0.1180
        11        -0.0576     -0.0263      0.0874      0.0705     -0.1227      0.1240
        12         0.0053     -0.0734      0.1563      0.2240      0.0469      0.0851
        13        -0.1278      0.0139      0.1739      0.1491      0.1356     -0.1539
        14        -0.2407     -0.0460      0.0555      0.2545     -0.2168      0.0254
        15         0.5567      0.1484     -0.2422     -0.2625     -0.0339      0.1925
        16        -0.2895      0.0692      0.1012     -0.0868      0.0314      0.0911
 <0|del|b> * <b|rxdel|0> + <0|del|b> * <b|delr+rdel|0>
 Rotatory Strengths (R) in cgs (10**-40 erg-esu-cm/Gauss)
       state          XX          YY          ZZ    R(velocity)    E-M Angle
         1        -0.0274      9.8641     -1.6968      2.7133       80.63
         2        -2.1775     -7.2285     -0.4398     -3.2819      106.46
         3        14.0785     -5.5908     20.1719      9.5532       66.36
         4        -7.6075    -13.1285     -7.3293     -9.3551      121.65
         5        -4.8352     11.1139     18.3344      8.2044       80.34
         6       122.7328     10.8076     -0.6012     44.3131       64.22
         7       -91.4736     20.0490    -29.0197    -33.4814      121.29
         8        -2.5382    -10.6390     -7.6733     -6.9502      114.48
         9       -18.5586     -1.1872     -7.6557     -9.1339      109.37
        10         3.1537    -12.5805     -3.8774     -4.4347      112.37
        11         7.3280     15.8341      1.2282      8.1301       37.86
        12        12.5527    -23.2744    -22.1019    -10.9412      104.44
        13         2.5141    -23.3582     -5.0058     -8.6166      119.57
        14       -65.0589      4.3902    -14.4590    -25.0426      159.55
        15        32.8702     30.8430     -0.5590     21.0514       73.73
        16         2.0286     19.0994      2.5179      7.8820       39.68
 1/2[<0|r|b>*<b|rxdel|0> + (<0|rxdel|b>*<b|r|0>)*]
 Rotatory Strengths (R) in cgs (10**-40 erg-esu-cm/Gauss)
       state          XX          YY          ZZ     R(length)
         1        -4.4582    -18.2513      8.7564     -4.6510
         2        -1.2625      0.1039     -0.8844     -0.6810
         3        23.6788     27.9945     -9.9176     13.9186
         4       -25.9250     -0.6936      0.0196     -8.8663
         5        26.2752     -0.5343      0.9514      8.8974
         6        -8.7482    -81.1376    233.9293     48.0145
         7        42.1904   -133.0138    -13.1150    -34.6461
         8       -24.7291     15.9672     -2.1374     -3.6331
         9       -14.8864    -40.1108     21.7477    -11.0831
        10       -14.6389     -5.1343      0.6605     -6.3709
        11         0.4547     -2.5869     17.8104      5.2261
        12       -64.0372     40.4417     -8.7087    -10.7681
        13         0.8533      5.8059    -30.4205     -7.9204
        14         1.3413    -71.6898     -0.1748    -23.5078
        15       -13.0827     57.5349     13.9122     19.4548
        16        26.1987     -2.4176      0.9609      8.2473
  1/2[<0|del|b>*<b|r|0> + (<0|r|b>*<b|del|0>)*] (Au)
       state          X           Y           Z        Dip. S.   Osc.(frdel)
         1         0.0000     -0.0006     -0.0007      0.0012      0.0008
         2        -0.0043     -0.0002     -0.0001      0.0045      0.0030
         3        -0.0233     -0.0038     -0.0074      0.0345      0.0230
         4        -0.0020     -0.0053      0.0000      0.0073      0.0048
         5        -0.0079     -0.0242      0.0000      0.0320      0.0213
         6        -0.0006     -0.0325     -0.0428      0.0760      0.0506
         7        -0.0039     -0.0197     -0.0003      0.0239      0.0160
         8        -0.0114     -0.0077     -0.0005      0.0196      0.0131
         9        -0.0118     -0.0340     -0.0193      0.0651      0.0434
        10        -0.0017      0.0004      0.0001      0.0011      0.0008
        11        -0.0003     -0.0001     -0.0058      0.0062      0.0041
        12        -0.0314     -0.0045     -0.0001      0.0360      0.0240
        13         0.0000     -0.0046     -0.0078      0.0124      0.0083
        14        -0.0019     -0.0266     -0.0001      0.0286      0.0191
        15        -0.0350     -0.0063     -0.0005      0.0418      0.0279
        16        -0.0246     -0.0008     -0.0014      0.0268      0.0178

 Excitation energies and oscillator strengths:
 
 Excited State   1:      Singlet-A      5.2204 eV  237.50 nm  f=0.0009  <S**2>=0.000
      23 -> 25         0.24360
      24 -> 25         0.65818
 This state for optimization and/or second-order correction.
 Total Energy, E(TD-HF/TD-DFT) =  -343.399657488    
 Copying the excited state density for this state as the 1-particle RhoCI density.
 
 Excited State   2:      Singlet-A      6.0902 eV  203.58 nm  f=0.0021  <S**2>=0.000
      23 -> 25         0.65662
      24 -> 25        -0.24657
 
 Excited State   3:      Singlet-A      7.6762 eV  161.52 nm  f=0.0263  <S**2>=0.000
      21 -> 25        -0.23989
      22 -> 25         0.49823
      23 -> 26        -0.13965
      24 -> 26        -0.38121
      24 -> 27         0.10723
 
 Excited State   4:      Singlet-A      7.7985 eV  158.98 nm  f=0.0052  <S**2>=0.000
      20 -> 25        -0.10286
      21 -> 25         0.64871
      22 -> 25         0.14316
      24 -> 26        -0.19217
 
 Excited State   5:      Singlet-A      8.0326 eV  154.35 nm  f=0.0148  <S**2>=0.000
      22 -> 25        -0.15861
      23 -> 26         0.40903
      23 -> 27         0.27031
      24 -> 26        -0.35812
      24 -> 27        -0.30120
 
 Excited State   6:      Singlet-A      8.4561 eV  146.62 nm  f=0.0588  <S**2>=0.000
      20 -> 25        -0.18106
      22 -> 25         0.36888
      23 -> 26         0.30014
      23 -> 27         0.20124
      24 -> 26         0.40151
 
 Excited State   7:      Singlet-A      8.5990 eV  144.19 nm  f=0.0161  <S**2>=0.000
      18 -> 25         0.14134
      20 -> 25         0.64259
      21 -> 25         0.10417
 
 Excited State   8:      Singlet-A      8.6366 eV  143.56 nm  f=0.0127  <S**2>=0.000
      22 -> 26         0.12543
      23 -> 26         0.37967
      24 -> 27         0.56386
 
 Excited State   9:      Singlet-A      8.8389 eV  140.27 nm  f=0.0407  <S**2>=0.000
      22 -> 25        -0.14894
      22 -> 26        -0.15134
      22 -> 27         0.10493
      23 -> 26        -0.22490
      23 -> 27         0.56427
      24 -> 27         0.23565
 
 Excited State  10:      Singlet-A      9.0369 eV  137.20 nm  f=0.0012  <S**2>=0.000
      19 -> 25         0.12804
      22 -> 26         0.59979
      22 -> 27        -0.25012
      23 -> 26        -0.10864
      23 -> 27         0.18057
 
 Excited State  11:      Singlet-A      9.0757 eV  136.61 nm  f=0.0030  <S**2>=0.000
      19 -> 25         0.68335
      22 -> 26        -0.11410
 
 Excited State  12:      Singlet-A      9.7669 eV  126.94 nm  f=0.0271  <S**2>=0.000
      16 -> 25        -0.10454
      17 -> 25        -0.30109
      18 -> 25         0.56513
      20 -> 25        -0.14210
      22 -> 27         0.11890
      24 -> 28         0.13095
 
 Excited State  13:      Singlet-A      9.8533 eV  125.83 nm  f=0.0077  <S**2>=0.000
      18 -> 25        -0.16553
      22 -> 26         0.10395
      22 -> 27         0.21854
      23 -> 28        -0.20879
      24 -> 28         0.54597
      24 -> 29        -0.16079
 
 Excited State  14:      Singlet-A      9.9038 eV  125.19 nm  f=0.0182  <S**2>=0.000
      21 -> 26        -0.28396
      21 -> 27        -0.11297
      22 -> 26         0.20675
      22 -> 27         0.49901
      24 -> 28        -0.24554
      24 -> 29         0.11848
 
 Excited State  15:      Singlet-A     10.0143 eV  123.81 nm  f=0.0253  <S**2>=0.000
      16 -> 25        -0.10424
      17 -> 25         0.26581
      18 -> 25         0.11470
      21 -> 26         0.50379
      21 -> 27         0.24035
      22 -> 27         0.26551
 
 Excited State  16:      Singlet-A     10.1192 eV  122.52 nm  f=0.0183  <S**2>=0.000
      16 -> 25        -0.35971
      17 -> 25         0.44086
      18 -> 25         0.16522
      21 -> 26        -0.23579
      22 -> 27        -0.14639
      24 -> 30        -0.15022
 SavETr:  write IOETrn=   770 NScale= 10 NData=  16 NLR=1 NState=   16 LETran=     298.

 **********************************************************************

            Population analysis using the SCF Density.

 **********************************************************************

 Orbital symmetries:
       Occupied  (A) (A) (A) (A) (A) (A) (A) (A) (A) (A) (A) (A)
                 (A) (A) (A) (A) (A) (A) (A) (A) (A) (A) (A) (A)
       Virtual   (A) (A) (A) (A) (A) (A) (A) (A) (A) (A) (A) (A)
                 (A) (A) (A) (A) (A) (A) (A) (A) (A) (A) (A) (A)
                 (A) (A) (A) (A) (A) (A) (A) (A) (A) (A) (A) (A)
                 (A) (A) (A) (A) (A) (A) (A) (A) (A) (A) (A) (A)
                 (A) (A) (A) (A) (A) (A) (A) (A) (A) (A) (A) (A)
                 (A) (A) (A) (A) (A) (A) (A) (A) (A) (A) (A) (A)
                 (A) (A) (A) (A) (A) (A)
 The electronic state is 1-A.
 Alpha  occ. eigenvalues --  -19.19964 -19.15589 -19.14322 -10.32648 -10.26054
 Alpha  occ. eigenvalues --  -10.18854  -1.09485  -1.01624  -1.00614  -0.77694
 Alpha  occ. eigenvalues --   -0.67524  -0.60428  -0.52316  -0.48466  -0.47872
 Alpha  occ. eigenvalues --   -0.43652  -0.42198  -0.41352  -0.38759  -0.38300
 Alpha  occ. eigenvalues --   -0.34572  -0.31743  -0.28382  -0.27098
 Alpha virt. eigenvalues --   -0.01375   0.06171   0.07990   0.13160   0.14253
 Alpha virt. eigenvalues --    0.14998   0.16868   0.20720   0.21850   0.22594
 Alpha virt. eigenvalues --    0.31236   0.33792   0.51890   0.52826   0.56053
 Alpha virt. eigenvalues --    0.56559   0.60591   0.62971   0.64516   0.68606
 Alpha virt. eigenvalues --    0.74295   0.76372   0.78490   0.79958   0.86274
 Alpha virt. eigenvalues --    0.87378   0.89202   0.90532   0.91891   0.94396
 Alpha virt. eigenvalues --    0.95975   1.00067   1.01030   1.03801   1.06610
 Alpha virt. eigenvalues --    1.08114   1.24800   1.27701   1.36554   1.39678
 Alpha virt. eigenvalues --    1.42329   1.45143   1.51020   1.61735   1.67109
 Alpha virt. eigenvalues --    1.70826   1.73794   1.77655   1.79874   1.81998
 Alpha virt. eigenvalues --    1.85404   1.86366   1.87918   1.95730   1.99902
 Alpha virt. eigenvalues --    2.04165   2.12808   2.14581   2.21512   2.27468
 Alpha virt. eigenvalues --    2.32147   2.35681   2.38126   2.46197   2.50885
 Alpha virt. eigenvalues --    2.59948   2.65189   2.72382   2.79160   2.88342
 Alpha virt. eigenvalues --    2.97030   3.05606   3.68744   3.86542   4.11660
 Alpha virt. eigenvalues --    4.18552   4.31361   4.58744
          Condensed to atoms (all electrons):
               1          2          3          4          5          6
     1  C    4.912411   0.365580   0.232489  -0.017847   0.311480  -0.022987
     2  H    0.365580   0.609332  -0.029053  -0.006542  -0.056231   0.001621
     3  O    0.232489  -0.029053   8.276823   0.227874  -0.047367   0.003491
     4  H   -0.017847  -0.006542   0.227874   0.393853  -0.002690  -0.000146
     5  C    0.311480  -0.056231  -0.047367  -0.002690   5.211772   0.344166
     6  H   -0.022987   0.001621   0.003491  -0.000146   0.344166   0.572598
     7  H   -0.022841  -0.004462  -0.001551   0.003440   0.358305  -0.028303
     8  H   -0.023343   0.005249   0.002174  -0.000486   0.367039  -0.023973
     9  C    0.332831  -0.044438  -0.038378   0.006001  -0.032978  -0.000129
    10  O   -0.065740   0.001178  -0.000425  -0.000105   0.002838  -0.000001
    11  O   -0.089424   0.003225   0.000874  -0.000119   0.001662   0.000413
    12  H    0.009429  -0.000280  -0.000250   0.000021  -0.000499  -0.000052
               7          8          9         10         11         12
     1  C   -0.022841  -0.023343   0.332831  -0.065740  -0.089424   0.009429
     2  H   -0.004462   0.005249  -0.044438   0.001178   0.003225  -0.000280
     3  O   -0.001551   0.002174  -0.038378  -0.000425   0.000874  -0.000250
     4  H    0.003440  -0.000486   0.006001  -0.000105  -0.000119   0.000021
     5  C    0.358305   0.367039  -0.032978   0.002838   0.001662  -0.000499
     6  H   -0.028303  -0.023973  -0.000129  -0.000001   0.000413  -0.000052
     7  H    0.578265  -0.027701   0.003836  -0.000059   0.000208   0.000009
     8  H   -0.027701   0.520383  -0.009562   0.000020   0.006182  -0.000197
     9  C    0.003836  -0.009562   4.363021   0.559884   0.274187  -0.005955
    10  O   -0.000059   0.000020   0.559884   8.034736  -0.082604   0.009121
    11  O    0.000208   0.006182   0.274187  -0.082604   8.239698   0.217059
    12  H    0.000009  -0.000197  -0.005955   0.009121   0.217059   0.356771
 Mulliken charges:
               1
     1  C    0.077961
     2  H    0.154820
     3  O   -0.626700
     4  H    0.396747
     5  C   -0.457497
     6  H    0.153305
     7  H    0.140853
     8  H    0.184215
     9  C    0.591679
    10  O   -0.458844
    11  O   -0.571362
    12  H    0.414823
 Sum of Mulliken charges =  -0.00000
 Mulliken charges with hydrogens summed into heavy atoms:
               1
     1  C    0.232781
     3  O   -0.229953
     5  C    0.020876
     9  C    0.591679
    10  O   -0.458844
    11  O   -0.156539
 Electronic spatial extent (au):  <R**2>=            568.6956
 Charge=             -0.0000 electrons
 Dipole moment (field-independent basis, Debye):
    X=              1.8995    Y=              1.4136    Z=              0.4676  Tot=              2.4135
 Quadrupole moment (field-independent basis, Debye-Ang):
   XX=            -29.8329   YY=            -35.6853   ZZ=            -35.8964
   XY=             -6.7372   XZ=              4.1567   YZ=             -0.2909
 Traceless Quadrupole moment (field-independent basis, Debye-Ang):
   XX=              3.9720   YY=             -1.8804   ZZ=             -2.0915
   XY=             -6.7372   XZ=              4.1567   YZ=             -0.2909
 Octapole moment (field-independent basis, Debye-Ang**2):
  XXX=              1.1540  YYY=             -3.7888  ZZZ=             -2.2807  XYY=              2.5148
  XXY=              2.7290  XXZ=            -10.5867  XZZ=             -3.5390  YZZ=              1.2145
  YYZ=             -1.5507  XYZ=              0.4356
 Hexadecapole moment (field-independent basis, Debye-Ang**3):
 XXXX=           -333.2163 YYYY=           -199.8708 ZZZZ=           -100.7708 XXXY=            -52.0434
 XXXZ=             12.2227 YYYX=            -21.8553 YYYZ=             -1.1785 ZZZX=              0.5588
 ZZZY=             -2.9132 XXYY=            -78.7400 XXZZ=            -75.7294 YYZZ=            -48.9785
 XXYZ=             -1.4436 YYXZ=              1.1459 ZZXY=             -5.6944
 N-N= 2.461209226818D+02 E-N=-1.297729081051D+03  KE= 3.403973036161D+02
 Unable to Open any file for archive entry.
 1\1\GINC-CCC143\SP\RB3LYP TD-FC\6-31G(d)\C3H6O3\ROOT\21-Feb-2025\0\\# 
 td=(nstat=16) b3lyp/6-31g(d)\\lactic_acid | No.1\\0,1\C,0,-0.660084,-0
 .272083,-0.374577\H,0,-0.723289,-0.815913,-1.325405\O,0,-1.067553,-1.1
 46988,0.730333\H,0,-1.947972,-1.527836,0.536099\C,0,-1.500539,0.999635
 ,-0.405676\H,0,-1.16336,1.680565,-1.195058\H,0,-2.549877,0.748956,-0.6
 01226\H,0,-1.428977,1.51603,0.553246\C,0,0.822234,-0.046959,-0.123625\
 O,0,1.722435,-0.771331,-0.548963\O,0,1.071364,1.064654,0.647272\H,0,2.
 033842,1.143968,0.826482\\Version=ES64L-G16RevC.02\State=1-A\HF=-343.5
 915047\RMSD=3.077e-09\PG=C01 [X(C3H6O3)]\\@
 The archive entry for this job was punched.


 QUHEN THE CAUSS IS TAKEN AWAY THE EFFECT WANISHETH.
 -- PROVERBS AND REASONS OF THE YEAR 1585
           AS REPRINTED IN PAISLEY MAGAZINE 1828.
 Job cpu time:       0 days  0 hours  3 minutes 52.1 seconds.
 Elapsed time:       0 days  0 hours  0 minutes 37.2 seconds.
 File lengths (MBytes):  RWF=    178 Int=      0 D2E=      0 Chk=      8 Scr=      1
 Normal termination of Gaussian 16 at Fri Feb 21 14:05:15 2025.
