 Entering Gaussian System, Link 0=/apl/gaussian/16c02/g16/._.g16
 Initial command:
 /apl/gaussian/16c02/g16/l1.exe "/lwork/users/ux8/8286876.ccpbs1/gaussian/Gau-791104.inp" -scrdir="/lwork/users/ux8/8286876.ccpbs1/gaussian/"
 Default CPUs for threads: 104,105,106,107,108,109,110,111
 Default is to use a total of   8 processors:
                                8 via shared-memory
                                1 via Linda
 Entering Link 1 = /apl/gaussian/16c02/g16/l1.exe PID=    791105.
  
 Copyright (c) 1988-2021, Gaussian, Inc.  All Rights Reserved.
  
 This is part of the Gaussian(R) 16 program.  It is based on
 the Gaussian(R) 09 system (copyright 2009, Gaussian, Inc.),
 the Gaussian(R) 03 system (copyright 2003, Gaussian, Inc.),
 the Gaussian(R) 98 system (copyright 1998, Gaussian, Inc.),
 the Gaussian(R) 94 system (copyright 1995, Gaussian, Inc.),
 the Gaussian 92(TM) system (copyright 1992, Gaussian, Inc.),
 the Gaussian 90(TM) system (copyright 1990, Gaussian, Inc.),
 the Gaussian 88(TM) system (copyright 1988, Gaussian, Inc.),
 the Gaussian 86(TM) system (copyright 1986, Carnegie Mellon
 University), and the Gaussian 82(TM) system (copyright 1983,
 Carnegie Mellon University). Gaussian is a federally registered
 trademark of Gaussian, Inc.
  
 This software contains proprietary and confidential information,
 including trade secrets, belonging to Gaussian, Inc.
  
 This software is provided under written license and may be
 used, copied, transmitted, or stored only in accord with that
 written license.
  
 The following legend is applicable only to US Government
 contracts under FAR:
  
                    RESTRICTED RIGHTS LEGEND
  
 Use, reproduction and disclosure by the US Government is
 subject to restrictions as set forth in subparagraphs (a)
 and (c) of the Commercial Computer Software - Restricted
 Rights clause in FAR 52.227-19.
  
 Gaussian, Inc.
 340 Quinnipiac St., Bldg. 40, Wallingford CT 06492
  
  
 ---------------------------------------------------------------
 Warning -- This program may not be used in any manner that
 competes with the business of Gaussian, Inc. or will provide
 assistance to any competitor of Gaussian, Inc.  The licensee
 of this program is prohibited from giving any competitor of
 Gaussian, Inc. access to this program.  By using this program,
 the user acknowledges that Gaussian, Inc. is engaged in the
 business of creating and licensing software in the field of
 computational chemistry and represents and warrants to the
 licensee that it is not a competitor of Gaussian, Inc. and that
 it will not use this program in any manner prohibited above.
 ---------------------------------------------------------------
  

 Cite this work as:
 Gaussian 16, Revision C.02,
 M. J. Frisch, G. W. Trucks, H. B. Schlegel, G. E. Scuseria, 
 M. A. Robb, J. R. Cheeseman, G. Scalmani, V. Barone, 
 G. A. Petersson, H. Nakatsuji, X. Li, M. Caricato, A. V. Marenich, 
 J. Bloino, B. G. Janesko, R. Gomperts, B. Mennucci, H. P. Hratchian, 
 J. V. Ortiz, A. F. Izmaylov, J. L. Sonnenberg, D. Williams-Young, 
 F. Ding, F. Lipparini, F. Egidi, J. Goings, B. Peng, A. Petrone, 
 T. Henderson, D. Ranasinghe, V. G. Zakrzewski, J. Gao, N. Rega, 
 G. Zheng, W. Liang, M. Hada, M. Ehara, K. Toyota, R. Fukuda, 
 J. Hasegawa, M. Ishida, T. Nakajima, Y. Honda, O. Kitao, H. Nakai, 
 T. Vreven, K. Throssell, J. A. Montgomery, Jr., J. E. Peralta, 
 F. Ogliaro, M. J. Bearpark, J. J. Heyd, E. N. Brothers, K. N. Kudin, 
 V. N. Staroverov, T. A. Keith, R. Kobayashi, J. Normand, 
 K. Raghavachari, A. P. Rendell, J. C. Burant, S. S. Iyengar, 
 J. Tomasi, M. Cossi, J. M. Millam, M. Klene, C. Adamo, R. Cammi, 
 J. W. Ochterski, R. L. Martin, K. Morokuma, O. Farkas, 
 J. B. Foresman, and D. J. Fox, Gaussian, Inc., Wallingford CT, 2019.
 
 ******************************************
 Gaussian 16:  ES64L-G16RevC.02  7-Dec-2021
                21-Feb-2025 
 ******************************************
 %chk=lactic_acid.019.tddft.chk
 %mem=9600MB
 SetSPE:  set environment variable "OMP_PROC_BIND" = "true"
 SetSPE:  set environment variable "OMP_PLACES" = "{104},{105},{106},{107},{108},{109},{110},{111}"
 ------------------------------
 # td=(nstat=16) b3lyp/6-31g(d)
 ------------------------------
 1/38=1,172=1/1;
 2/12=2,17=6,18=5,40=1/2;
 3/5=1,6=6,7=1,11=9,25=1,30=1,74=-5/1,2,3,8;
 4//1;
 5/5=2,38=5/2;
 8/6=1,10=2,108=16/1;
 9/41=16,42=1,70=2/14;
 6/7=2,8=2,9=2,10=2/1;
 99/5=1,9=1/99;
 -------------------
 lactic_acid | No.19
 -------------------
 Symbolic Z-matrix:
 Charge =  0 Multiplicity = 1
 C                    -0.63952  -0.26038  -0.36113 
 H                    -0.58691  -0.77167  -1.32991 
 O                    -0.99957  -1.21481   0.69034 
 H                    -1.83514  -1.66392   0.44996 
 C                    -1.60349   0.91918  -0.40691 
 H                    -1.3191    1.63084  -1.18989 
 H                    -2.6204    0.56993  -0.6189 
 H                    -1.59533   1.43941   0.55385 
 C                     0.76738   0.17581   0.01261 
 O                     1.06053   1.13049   0.73251 
 O                     1.7136   -0.64408  -0.55673 
 H                     2.61421  -0.38509  -0.26149 
 
                          Input orientation:                          
 ---------------------------------------------------------------------
 Center     Atomic      Atomic             Coordinates (Angstroms)
 Number     Number       Type             X           Y           Z
 ---------------------------------------------------------------------
      1          6           0       -0.639518   -0.260377   -0.361134
      2          1           0       -0.586905   -0.771674   -1.329911
      3          8           0       -0.999570   -1.214809    0.690336
      4          1           0       -1.835139   -1.663916    0.449956
      5          6           0       -1.603491    0.919179   -0.406906
      6          1           0       -1.319103    1.630841   -1.189887
      7          1           0       -2.620395    0.569932   -0.618901
      8          1           0       -1.595326    1.439412    0.553845
      9          6           0        0.767376    0.175812    0.012614
     10          8           0        1.060530    1.130490    0.732512
     11          8           0        1.713597   -0.644079   -0.556731
     12          1           0        2.614208   -0.385091   -0.261489
 ---------------------------------------------------------------------
                    Distance matrix (angstroms):
                    1          2          3          4          5
     1  C    0.000000
     2  H    1.096687   0.000000
     3  O    1.464980   2.109042   0.000000
     4  H    2.014274   2.349917   0.978599   0.000000
     5  C    1.524038   2.178157   2.474382   2.731346   0.000000
     6  H    2.173792   2.515512   3.425648   3.716289   1.095627
     7  H    2.163268   2.537819   2.743442   2.597914   1.095906
     8  H    2.154075   3.074793   2.723682   3.114313   1.092589
     9  C    1.519638   2.129361   2.348453   3.216979   2.519842
    10  O    2.453719   3.253592   3.121893   4.034035   2.905156
    11  O    2.392203   2.430308   3.040096   3.827142   3.670054
    12  H    3.257640   3.396777   3.828027   4.683827   4.417154
                    6          7          8          9         10
     6  H    0.000000
     7  H    1.773390   0.000000
     8  H    1.775822   1.783843   0.000000
     9  C    2.813630   3.468593   2.733492   0.000000
    10  O    3.099778   3.961029   2.679725   1.231098   0.000000
    11  O    3.843620   4.501241   4.064884   1.375394   2.288611
    12  H    4.516286   5.332999   4.659802   1.949496   2.387245
                   11         12
    11  O    0.000000
    12  H    0.982519   0.000000
 Stoichiometry    C3H6O3
 Framework group  C1[X(C3H6O3)]
 Deg. of freedom    30
 Full point group                 C1      NOp   1
 Largest Abelian subgroup         C1      NOp   1
 Largest concise Abelian subgroup C1      NOp   1
                         Standard orientation:                         
 ---------------------------------------------------------------------
 Center     Atomic      Atomic             Coordinates (Angstroms)
 Number     Number       Type             X           Y           Z
 ---------------------------------------------------------------------
      1          6           0        0.639518   -0.260377    0.361134
      2          1           0        0.586905   -0.771674    1.329911
      3          8           0        0.999570   -1.214809   -0.690336
      4          1           0        1.835139   -1.663916   -0.449956
      5          6           0        1.603491    0.919179    0.406906
      6          1           0        1.319103    1.630841    1.189887
      7          1           0        2.620395    0.569932    0.618901
      8          1           0        1.595326    1.439412   -0.553845
      9          6           0       -0.767376    0.175812   -0.012614
     10          8           0       -1.060530    1.130490   -0.732512
     11          8           0       -1.713597   -0.644079    0.556731
     12          1           0       -2.614208   -0.385091    0.261489
 ---------------------------------------------------------------------
 Rotational constants (GHZ):           5.0903416           2.8998140           2.3395538
 Standard basis: 6-31G(d) (6D, 7F)
 There are   102 symmetry adapted cartesian basis functions of A   symmetry.
 There are   102 symmetry adapted basis functions of A   symmetry.
   102 basis functions,   192 primitive gaussians,   102 cartesian basis functions
    24 alpha electrons       24 beta electrons
       nuclear repulsion energy       245.7123143150 Hartrees.
 NAtoms=   12 NActive=   12 NUniq=   12 SFac= 1.00D+00 NAtFMM=   60 NAOKFM=F Big=F
 Integral buffers will be    131072 words long.
 Regular integral format.
 Two-electron integral symmetry is turned on.
 One-electron integrals computed using PRISM.
 NBasis=   102 RedAO= T EigKep=  3.45D-03  NBF=   102
 NBsUse=   102 1.00D-06 EigRej= -1.00D+00 NBFU=   102
 ExpMin= 1.61D-01 ExpMax= 5.48D+03 ExpMxC= 8.25D+02 IAcc=3 IRadAn=         5 AccDes= 0.00D+00
 Harris functional with IExCor=  402 and IRadAn=       5 diagonalized for initial guess.
 HarFok:  IExCor=  402 AccDes= 0.00D+00 IRadAn=         5 IDoV= 1 UseB2=F ITyADJ=14
 ICtDFT=  3500011 ScaDFX=  1.000000  1.000000  1.000000  1.000000
 FoFCou: FMM=F IPFlag=           0 FMFlag=      100000 FMFlg1=           0
         NFxFlg=           0 DoJE=T BraDBF=F KetDBF=T FulRan=T
         wScrn=  0.000000 ICntrl=       500 IOpCl=  0 I1Cent=   200000004 NGrid=           0
         NMat0=    1 NMatS0=      1 NMatT0=    0 NMatD0=    1 NMtDS0=    0 NMtDT0=    0
 Petite list used in FoFCou.
 Keep R1 ints in memory in canonical form, NReq=21214305.
 Requested convergence on RMS density matrix=1.00D-08 within 128 cycles.
 Requested convergence on MAX density matrix=1.00D-06.
 Requested convergence on             energy=1.00D-06.
 No special actions if energy rises.
 Integral accuracy reduced to 1.0D-05 until final iterations.
 Initial convergence to 1.0D-05 achieved.  Increase integral accuracy.
 SCF Done:  E(RB3LYP) =  -343.593025524     A.U. after   14 cycles
            NFock= 14  Conv=0.31D-08     -V/T= 2.0094
 DoSCS=F DFT=T ScalE2(SS,OS)=  1.000000  1.000000
 ExpMin= 1.61D-01 ExpMax= 5.48D+03 ExpMxC= 8.25D+02 IAcc=3 IRadAn=         5 AccDes= 0.00D+00
 HarFok:  IExCor=  205 AccDes= 0.00D+00 IRadAn=         5 IDoV=-2 UseB2=F ITyADJ=14
 ICtDFT= 12500011 ScaDFX=  1.000000  1.000000  1.000000  1.000000
 Range of M.O.s used for correlation:     7   102
 NBasis=   102 NAE=    24 NBE=    24 NFC=     6 NFV=     0
 NROrb=     96 NOA=    18 NOB=    18 NVA=    78 NVB=    78
 Keep R1, R2, and R3 ints in memory in canonical form, NReq=75112043.
 Orbital symmetries:
       Occupied  (A) (A) (A) (A) (A) (A) (A) (A) (A) (A) (A) (A)
                 (A) (A) (A) (A) (A) (A) (A) (A) (A) (A) (A) (A)
       Virtual   (A) (A) (A) (A) (A) (A) (A) (A) (A) (A) (A) (A)
                 (A) (A) (A) (A) (A) (A) (A) (A) (A) (A) (A) (A)
                 (A) (A) (A) (A) (A) (A) (A) (A) (A) (A) (A) (A)
                 (A) (A) (A) (A) (A) (A) (A) (A) (A) (A) (A) (A)
                 (A) (A) (A) (A) (A) (A) (A) (A) (A) (A) (A) (A)
                 (A) (A) (A) (A) (A) (A) (A) (A) (A) (A) (A) (A)
                 (A) (A) (A) (A) (A) (A)
    64 initial guesses have been made.
 Convergence on wavefunction:    0.001000000000000
 Iteration     1 Dimension    64 NMult     0 NNew     64
 CISAX will form    64 AO SS matrices at one time.
 New state      3 was old state      4
 New state      4 was old state      5
 New state      5 was old state      8
 New state      7 was old state      9
 New state      8 was old state      7
 New state      9 was old state     10
 New state     10 was old state     11
 New state     11 was old state      3
 New state     12 was old state     13
 New state     13 was old state     16
 New state     16 was old state     18
 Iteration     2 Dimension    96 NMult    64 NNew     32
 New state      9 was old state     11
 New state     10 was old state      9
 New state     11 was old state     10
 Iteration     3 Dimension   128 NMult    96 NNew     32
 Iteration     4 Dimension   158 NMult   128 NNew     30
 Iteration     5 Dimension   168 NMult   158 NNew     10
 ***********************************************************************
 Excited states from <AA,BB:AA,BB> singles matrix:
 ***********************************************************************
 
 Ground to excited state transition densities written to RWF  633
 Ground to excited state transition electric dipole moments (Au):
       state          X           Y           Z        Dip. S.      Osc.
         1         0.0096      0.0256      0.0509      0.0033      0.0004
         2         0.0797     -0.0258     -0.0203      0.0074      0.0011
         3         0.0152     -0.1862      0.2274      0.0866      0.0164
         4        -0.1389      0.3426     -0.1813      0.1696      0.0324
         5        -0.0497     -0.1488     -0.0777      0.0307      0.0061
         6        -0.2964     -0.2788      0.1024      0.1761      0.0368
         7        -0.0882     -0.1951     -0.1132      0.0587      0.0124
         8         0.2852      0.1971     -0.2301      0.1731      0.0370
         9         0.3542      0.2027     -0.0983      0.1762      0.0379
        10         0.0777      0.1435     -0.0233      0.0272      0.0060
        11        -0.0983      0.0121      0.0409      0.0115      0.0026
        12        -0.2764     -0.1607     -0.0589      0.1057      0.0245
        13         0.2295      0.0616     -0.1560      0.0808      0.0195
        14         0.0966      0.0023      0.2047      0.0512      0.0124
        15        -0.0262     -0.0248      0.0890      0.0092      0.0023
        16        -0.3042      0.0462     -0.1276      0.1109      0.0276
 Ground to excited state transition velocity dipole moments (Au):
       state          X           Y           Z        Dip. S.      Osc.
         1         0.0002     -0.0092     -0.0097      0.0002      0.0006
         2        -0.0280     -0.0174      0.0183      0.0014      0.0043
         3        -0.0122      0.0425     -0.0735      0.0074      0.0172
         4         0.0397     -0.0907      0.0324      0.0108      0.0252
         5         0.0375      0.0790      0.0018      0.0077      0.0171
         6         0.0830      0.0851     -0.0325      0.0152      0.0323
         7         0.0261      0.0669      0.0496      0.0076      0.0161
         8        -0.0920     -0.0513      0.0707      0.0161      0.0334
         9        -0.1156     -0.0775      0.0180      0.0197      0.0408
        10        -0.0264     -0.0563      0.0123      0.0040      0.0080
        11         0.0352     -0.0273     -0.0435      0.0039      0.0077
        12         0.0932      0.0526      0.0214      0.0119      0.0229
        13        -0.0909     -0.0246      0.0590      0.0124      0.0227
        14        -0.0206      0.0188     -0.0837      0.0078      0.0142
        15         0.0112      0.0092     -0.0325      0.0013      0.0023
        16         0.1331     -0.0056      0.0697      0.0226      0.0405
 Ground to excited state transition magnetic dipole moments (Au):
       state          X           Y           Z
         1        -0.2587      0.6022     -0.4287
         2        -0.1216     -0.0796     -0.1893
         3        -0.1973      0.1798     -0.0517
         4        -0.0790      0.1399     -0.0406
         5         0.4107      0.0683      0.5621
         6         0.2217     -0.0709     -0.6862
         7        -0.9959     -0.3439      0.2386
         8         0.0199      0.4685      0.0578
         9         0.1640     -0.0551      0.2500
        10         0.1010     -0.0794      0.1482
        11         0.1386     -0.2169      0.2118
        12         0.5441      0.2754      0.0643
        13         0.1923      0.2836     -0.1157
        14         0.0481      0.1942      0.1612
        15        -0.0377      0.3682      0.0880
        16        -0.2837     -0.8243      0.4443
 Ground to excited state transition velocity quadrupole moments (Au):
       state          XX          YY          ZZ          XY          XZ          YZ
         1         0.0205      0.0018     -0.0168     -0.0468     -0.0225      0.0051
         2        -0.0174      0.1342     -0.0780      0.0437      0.0403      0.0030
         3        -0.2375      0.0534      0.2018     -0.1644      0.1090     -0.0169
         4        -0.0417     -0.1154      0.0869      0.2723     -0.2194      0.1453
         5         0.2560     -0.3905      0.2159      0.1103     -0.1102      0.0183
         6        -0.7549      0.1252      0.1105     -0.1317      0.2530     -0.1088
         7         0.0544     -0.2524      0.1245      0.1223      0.1202     -0.1597
         8         0.2600     -0.1553      0.0366      0.4004     -0.2116      0.0171
         9         0.2832     -0.0300     -0.0419      0.2518     -0.0429      0.0271
        10        -0.0972      0.0909     -0.0509     -0.1664      0.0803     -0.1306
        11        -0.0773      0.1122     -0.1175      0.2460      0.2568      0.0398
        12         0.1050      0.0686     -0.1035      0.1174      0.0412      0.1063
        13         0.1820     -0.0873     -0.0273      0.3093     -0.1059     -0.0182
        14         0.3269     -0.1456     -0.3328      0.0153     -0.1989      0.2208
        15        -0.0206     -0.0937     -0.1059     -0.0929      0.0384      0.1542
        16         0.6015      0.1774     -0.2600     -0.3175      0.0817      0.0703
 <0|del|b> * <b|rxdel|0> + <0|del|b> * <b|delr+rdel|0>
 Rotatory Strengths (R) in cgs (10**-40 erg-esu-cm/Gauss)
       state          XX          YY          ZZ    R(velocity)    E-M Angle
         1        -2.0795      6.6041     -9.7692     -1.7482       97.95
         2        -0.9056     -1.4940      6.6322      1.4108       81.49
         3        23.4722     -7.0358     17.9977     11.4780       53.55
         4       -30.9263     -9.2439     -2.0879    -14.0860      173.18
         5        18.1231     19.9928     13.4946     17.2035       69.13
         6        -1.1521     30.8931     48.4774     26.0728       67.18
         7       -14.7140    -27.2265    -41.1264    -27.6890      113.18
         8        -2.7751    -30.4497    -14.8159    -16.0136      111.32
         9        10.9590    -24.2786     -9.0291     -7.4495      103.81
        10         9.3163      4.9344     -6.5507      2.5666       73.06
        11        -7.3906      8.1749      2.5123      1.0989       85.68
        12        16.5026     60.5844     58.5009     45.1960        5.88
        13         1.7847    -39.9072    -22.9372    -20.3532      141.13
        14        -7.1600    -17.2017      3.3602     -7.0005      118.54
        15         3.0390     -4.3696      1.5178      0.0624       90.00
        16        13.1948     23.4630    -40.7821     -1.3748       90.85
 1/2[<0|r|b>*<b|rxdel|0> + (<0|rxdel|b>*<b|r|0>)*]
 Rotatory Strengths (R) in cgs (10**-40 erg-esu-cm/Gauss)
       state          XX          YY          ZZ     R(length)
         1         1.7609    -10.8934     15.4229      2.0968
         2         6.8526     -1.4542     -2.7199      0.8928
         3         2.1216     23.6800      8.3118     11.3711
         4        -7.7574    -33.9013     -5.2017    -15.6201
         5        14.4377      7.1907     30.8740     17.5008
         6        46.4656    -13.9792     49.6935     27.3933
         7       -62.0959    -47.4597     19.1017    -30.1513
         8        -4.0083    -65.3081      9.4021    -19.9714
         9       -41.0722      7.8948     17.3888     -5.2629
        10        -5.5521      8.0562      2.4375      1.6472
        11         9.6349      1.8556     -6.1325      1.7860
        12       106.3364     31.2942      2.6783     46.7696
        13       -31.2098    -12.3635    -12.7673    -18.7802
        14        -3.2840     -0.3142    -23.3333     -8.9772
        15        -0.6983      6.4568     -5.5430      0.0718
        16       -61.0198     26.9484     40.0904      2.0063
  1/2[<0|del|b>*<b|r|0> + (<0|r|b>*<b|del|0>)*] (Au)
       state          X           Y           Z        Dip. S.   Osc.(frdel)
         1         0.0000     -0.0002     -0.0005      0.0007      0.0005
         2        -0.0022      0.0005     -0.0004      0.0022      0.0014
         3        -0.0002     -0.0079     -0.0167      0.0248      0.0166
         4        -0.0055     -0.0311     -0.0059      0.0424      0.0283
         5        -0.0019     -0.0118     -0.0001      0.0138      0.0092
         6        -0.0246     -0.0237     -0.0033      0.0517      0.0344
         7        -0.0023     -0.0131     -0.0056      0.0210      0.0140
         8        -0.0262     -0.0101     -0.0163      0.0526      0.0351
         9        -0.0409     -0.0157     -0.0018      0.0584      0.0390
        10        -0.0020     -0.0081     -0.0003      0.0104      0.0069
        11        -0.0035     -0.0003     -0.0018      0.0056      0.0037
        12        -0.0258     -0.0084     -0.0013      0.0355      0.0237
        13        -0.0209     -0.0015     -0.0092      0.0316      0.0211
        14        -0.0020      0.0000     -0.0171      0.0191      0.0127
        15        -0.0003     -0.0002     -0.0029      0.0034      0.0023
        16        -0.0405     -0.0003     -0.0089      0.0497      0.0331

 Excitation energies and oscillator strengths:
 
 Excited State   1:      Singlet-A      5.2925 eV  234.26 nm  f=0.0004  <S**2>=0.000
      24 -> 25         0.69533
 This state for optimization and/or second-order correction.
 Total Energy, E(TD-HF/TD-DFT) =  -343.398528656    
 Copying the excited state density for this state as the 1-particle RhoCI density.
 
 Excited State   2:      Singlet-A      6.0504 eV  204.92 nm  f=0.0011  <S**2>=0.000
      23 -> 25         0.69822
 
 Excited State   3:      Singlet-A      7.7500 eV  159.98 nm  f=0.0164  <S**2>=0.000
      21 -> 25         0.52972
      22 -> 25        -0.39233
      24 -> 26        -0.16829
      24 -> 27         0.13790
 
 Excited State   4:      Singlet-A      7.8001 eV  158.95 nm  f=0.0324  <S**2>=0.000
      21 -> 25         0.44344
      22 -> 25         0.43051
      24 -> 26         0.27919
      24 -> 27        -0.13827
 
 Excited State   5:      Singlet-A      8.1314 eV  152.48 nm  f=0.0061  <S**2>=0.000
      23 -> 26         0.32158
      23 -> 27         0.59780
      24 -> 27         0.12055
 
 Excited State   6:      Singlet-A      8.5233 eV  145.47 nm  f=0.0368  <S**2>=0.000
      22 -> 25        -0.21696
      23 -> 27        -0.10821
      24 -> 26         0.58594
      24 -> 27         0.26828
 
 Excited State   7:      Singlet-A      8.6001 eV  144.17 nm  f=0.0124  <S**2>=0.000
      18 -> 25        -0.20403
      20 -> 25         0.64696
      21 -> 25        -0.12224
 
 Excited State   8:      Singlet-A      8.7246 eV  142.11 nm  f=0.0370  <S**2>=0.000
      22 -> 25         0.24090
      23 -> 26        -0.24591
      24 -> 26        -0.16922
      24 -> 27         0.57050
 
 Excited State   9:      Singlet-A      8.7664 eV  141.43 nm  f=0.0379  <S**2>=0.000
      22 -> 25         0.13940
      22 -> 26         0.12726
      23 -> 26         0.55081
      23 -> 27        -0.32496
      24 -> 27         0.18982
 
 Excited State  10:      Singlet-A      9.0466 eV  137.05 nm  f=0.0060  <S**2>=0.000
      19 -> 25         0.69557
 
 Excited State  11:      Singlet-A      9.1328 eV  135.76 nm  f=0.0026  <S**2>=0.000
      22 -> 26         0.62777
      22 -> 27        -0.25837
      23 -> 26        -0.15233
 
 Excited State  12:      Singlet-A      9.4493 eV  131.21 nm  f=0.0245  <S**2>=0.000
      17 -> 25        -0.16199
      18 -> 25         0.63891
      20 -> 25         0.21284
 
 Excited State  13:      Singlet-A      9.8656 eV  125.67 nm  f=0.0195  <S**2>=0.000
      22 -> 26         0.24854
      22 -> 27         0.60416
      23 -> 28        -0.19768
 
 Excited State  14:      Singlet-A      9.9187 eV  125.00 nm  f=0.0124  <S**2>=0.000
      22 -> 27         0.17195
      23 -> 28         0.63749
      23 -> 29        -0.13348
      24 -> 28         0.10620
 
 Excited State  15:      Singlet-A     10.0817 eV  122.98 nm  f=0.0023  <S**2>=0.000
      17 -> 25         0.21283
      24 -> 28         0.65053
 
 Excited State  16:      Singlet-A     10.1406 eV  122.27 nm  f=0.0276  <S**2>=0.000
      16 -> 25         0.11601
      21 -> 26         0.34591
      21 -> 27         0.57275
 SavETr:  write IOETrn=   770 NScale= 10 NData=  16 NLR=1 NState=   16 LETran=     298.

 **********************************************************************

            Population analysis using the SCF Density.

 **********************************************************************

 Orbital symmetries:
       Occupied  (A) (A) (A) (A) (A) (A) (A) (A) (A) (A) (A) (A)
                 (A) (A) (A) (A) (A) (A) (A) (A) (A) (A) (A) (A)
       Virtual   (A) (A) (A) (A) (A) (A) (A) (A) (A) (A) (A) (A)
                 (A) (A) (A) (A) (A) (A) (A) (A) (A) (A) (A) (A)
                 (A) (A) (A) (A) (A) (A) (A) (A) (A) (A) (A) (A)
                 (A) (A) (A) (A) (A) (A) (A) (A) (A) (A) (A) (A)
                 (A) (A) (A) (A) (A) (A) (A) (A) (A) (A) (A) (A)
                 (A) (A) (A) (A) (A) (A) (A) (A) (A) (A) (A) (A)
                 (A) (A) (A) (A) (A) (A)
 The electronic state is 1-A.
 Alpha  occ. eigenvalues --  -19.19916 -19.15618 -19.14536 -10.32671 -10.25988
 Alpha  occ. eigenvalues --  -10.18635  -1.09480  -1.01654  -1.00770  -0.77508
 Alpha  occ. eigenvalues --   -0.68244  -0.58821  -0.52684  -0.49703  -0.47470
 Alpha  occ. eigenvalues --   -0.43596  -0.42242  -0.40856  -0.38857  -0.37846
 Alpha  occ. eigenvalues --   -0.34623  -0.31791  -0.28082  -0.27637
 Alpha virt. eigenvalues --   -0.01407   0.07001   0.07350   0.12880   0.14465
 Alpha virt. eigenvalues --    0.15051   0.17270   0.20800   0.21777   0.23269
 Alpha virt. eigenvalues --    0.31118   0.33557   0.52530   0.54127   0.54806
 Alpha virt. eigenvalues --    0.56747   0.61128   0.62223   0.65115   0.67005
 Alpha virt. eigenvalues --    0.74156   0.76936   0.79206   0.81378   0.84294
 Alpha virt. eigenvalues --    0.87253   0.89051   0.90684   0.93451   0.94982
 Alpha virt. eigenvalues --    0.95609   1.00111   1.01986   1.04124   1.07492
 Alpha virt. eigenvalues --    1.10930   1.20490   1.25383   1.35044   1.39825
 Alpha virt. eigenvalues --    1.42310   1.48553   1.51619   1.64039   1.65375
 Alpha virt. eigenvalues --    1.68384   1.73870   1.77298   1.79012   1.81181
 Alpha virt. eigenvalues --    1.84875   1.87308   1.91240   1.96836   2.01390
 Alpha virt. eigenvalues --    2.02028   2.13291   2.16691   2.19839   2.26671
 Alpha virt. eigenvalues --    2.32180   2.35538   2.39914   2.44349   2.53626
 Alpha virt. eigenvalues --    2.55636   2.67037   2.70579   2.83113   2.87300
 Alpha virt. eigenvalues --    2.97426   3.05979   3.69051   3.88307   4.11740
 Alpha virt. eigenvalues --    4.22449   4.29721   4.56858
          Condensed to atoms (all electrons):
               1          2          3          4          5          6
     1  C    4.930400   0.350224   0.232826  -0.018759   0.337755  -0.020624
     2  H    0.350224   0.623682  -0.031211  -0.006147  -0.057913   0.001394
     3  O    0.232826  -0.031211   8.276572   0.228507  -0.044879   0.003384
     4  H   -0.018759  -0.006147   0.228507   0.393825  -0.002301  -0.000133
     5  C    0.337755  -0.057913  -0.044879  -0.002301   5.189740   0.343698
     6  H   -0.020624   0.001394   0.003384  -0.000133   0.343698   0.571330
     7  H   -0.027474  -0.003483  -0.001556   0.003153   0.361372  -0.028466
     8  H   -0.027482   0.005512   0.002039  -0.000569   0.367104  -0.023315
     9  C    0.312662  -0.037728  -0.037763   0.005824  -0.039038  -0.000963
    10  O   -0.075642   0.002990  -0.000654  -0.000064  -0.000175   0.000149
    11  O   -0.086364   0.004408   0.001059  -0.000169   0.002685  -0.000005
    12  H    0.009450  -0.000523  -0.000276   0.000029  -0.000328  -0.000001
               7          8          9         10         11         12
     1  C   -0.027474  -0.027482   0.312662  -0.075642  -0.086364   0.009450
     2  H   -0.003483   0.005512  -0.037728   0.002990   0.004408  -0.000523
     3  O   -0.001556   0.002039  -0.037763  -0.000654   0.001059  -0.000276
     4  H    0.003153  -0.000569   0.005824  -0.000064  -0.000169   0.000029
     5  C    0.361372   0.367104  -0.039038  -0.000175   0.002685  -0.000328
     6  H   -0.028466  -0.023315  -0.000963   0.000149  -0.000005  -0.000001
     7  H    0.579259  -0.027646   0.005092   0.000291  -0.000046   0.000004
     8  H   -0.027646   0.516244  -0.007736   0.008019   0.000158  -0.000009
     9  C    0.005092  -0.007736   4.369065   0.557242   0.284543  -0.006853
    10  O    0.000291   0.008019   0.557242   8.037611  -0.080961   0.008387
    11  O   -0.000046   0.000158   0.284543  -0.080961   8.233127   0.217023
    12  H    0.000004  -0.000009  -0.006853   0.008387   0.217023   0.359696
 Mulliken charges:
               1
     1  C    0.083027
     2  H    0.148795
     3  O   -0.628047
     4  H    0.396804
     5  C   -0.457721
     6  H    0.153552
     7  H    0.139501
     8  H    0.187682
     9  C    0.595653
    10  O   -0.457193
    11  O   -0.575457
    12  H    0.413403
 Sum of Mulliken charges =  -0.00000
 Mulliken charges with hydrogens summed into heavy atoms:
               1
     1  C    0.231823
     3  O   -0.231243
     5  C    0.023015
     9  C    0.595653
    10  O   -0.457193
    11  O   -0.162054
 Electronic spatial extent (au):  <R**2>=            573.3196
 Charge=             -0.0000 electrons
 Dipole moment (field-independent basis, Debye):
    X=              1.0050    Y=             -0.9765    Z=              2.0815  Tot=              2.5092
 Quadrupole moment (field-independent basis, Debye-Ang):
   XX=            -25.6263   YY=            -37.2193   ZZ=            -37.3764
   XY=             -0.8059   XZ=              0.2080   YZ=              1.3076
 Traceless Quadrupole moment (field-independent basis, Debye-Ang):
   XX=              7.7810   YY=             -3.8119   ZZ=             -3.9691
   XY=             -0.8059   XZ=              0.2080   YZ=              1.3076
 Octapole moment (field-independent basis, Debye-Ang**2):
  XXX=            -19.1439  YYY=             -8.2997  ZZZ=             -1.2227  XYY=              7.5190
  XXY=            -11.7878  XXZ=             -0.2998  XZZ=             -0.8049  YZZ=             -0.5394
  YYZ=              1.5757  XYZ=             -3.2775
 Hexadecapole moment (field-independent basis, Debye-Ang**3):
 XXXX=           -290.2596 YYYY=           -193.9095 ZZZZ=           -101.6828 XXXY=            -13.9341
 XXXZ=            -10.7404 YYYX=            -15.7145 YYYZ=              2.3290 ZZZX=             -2.7382
 ZZZY=             -0.9395 XXYY=            -87.7030 XXZZ=            -84.4959 YYZZ=            -50.2862
 XXYZ=              4.9912 YYXZ=             -4.5046 ZZXY=             -0.8097
 N-N= 2.457123143150D+02 E-N=-1.296921203161D+03  KE= 3.403978293548D+02
 Unable to Open any file for archive entry.
 1\1\GINC-CCC413\SP\RB3LYP TD-FC\6-31G(d)\C3H6O3\ROOT\21-Feb-2025\0\\# 
 td=(nstat=16) b3lyp/6-31g(d)\\lactic_acid | No.19\\0,1\C,0,-0.639518,-
 0.260377,-0.361134\H,0,-0.586905,-0.771674,-1.329911\O,0,-0.99957,-1.2
 14809,0.690336\H,0,-1.835139,-1.663916,0.449956\C,0,-1.603491,0.919179
 ,-0.406906\H,0,-1.319103,1.630841,-1.189887\H,0,-2.620395,0.569932,-0.
 618901\H,0,-1.595326,1.439412,0.553845\C,0,0.767376,0.175812,0.012614\
 O,0,1.06053,1.13049,0.732512\O,0,1.713597,-0.644079,-0.556731\H,0,2.61
 4208,-0.385091,-0.261489\\Version=ES64L-G16RevC.02\State=1-A\HF=-343.5
 930255\RMSD=3.091e-09\PG=C01 [X(C3H6O3)]\\@
 The archive entry for this job was punched.


 SI MONUMENTUM REQUIRIS, CIRCUMSPICE
     -- FROM SIR CHRISTOPHER WREN'S TOMBSTONE
 Job cpu time:       0 days  0 hours  3 minutes 50.4 seconds.
 Elapsed time:       0 days  0 hours  0 minutes 36.0 seconds.
 File lengths (MBytes):  RWF=    178 Int=      0 D2E=      0 Chk=      8 Scr=      1
 Normal termination of Gaussian 16 at Fri Feb 21 14:05:24 2025.
