 Entering Gaussian System, Link 0=/apl/gaussian/16c02/g16/._.g16
 Initial command:
 /apl/gaussian/16c02/g16/l1.exe "/lwork/users/ux8/8286860.ccpbs1/gaussian/Gau-1906440.inp" -scrdir="/lwork/users/ux8/8286860.ccpbs1/gaussian/"
 Default CPUs for threads: 48,49,50,51,52,53,54,55
 Default is to use a total of   8 processors:
                                8 via shared-memory
                                1 via Linda
 Entering Link 1 = /apl/gaussian/16c02/g16/l1.exe PID=   1906441.
  
 Copyright (c) 1988-2021, Gaussian, Inc.  All Rights Reserved.
  
 This is part of the Gaussian(R) 16 program.  It is based on
 the Gaussian(R) 09 system (copyright 2009, Gaussian, Inc.),
 the Gaussian(R) 03 system (copyright 2003, Gaussian, Inc.),
 the Gaussian(R) 98 system (copyright 1998, Gaussian, Inc.),
 the Gaussian(R) 94 system (copyright 1995, Gaussian, Inc.),
 the Gaussian 92(TM) system (copyright 1992, Gaussian, Inc.),
 the Gaussian 90(TM) system (copyright 1990, Gaussian, Inc.),
 the Gaussian 88(TM) system (copyright 1988, Gaussian, Inc.),
 the Gaussian 86(TM) system (copyright 1986, Carnegie Mellon
 University), and the Gaussian 82(TM) system (copyright 1983,
 Carnegie Mellon University). Gaussian is a federally registered
 trademark of Gaussian, Inc.
  
 This software contains proprietary and confidential information,
 including trade secrets, belonging to Gaussian, Inc.
  
 This software is provided under written license and may be
 used, copied, transmitted, or stored only in accord with that
 written license.
  
 The following legend is applicable only to US Government
 contracts under FAR:
  
                    RESTRICTED RIGHTS LEGEND
  
 Use, reproduction and disclosure by the US Government is
 subject to restrictions as set forth in subparagraphs (a)
 and (c) of the Commercial Computer Software - Restricted
 Rights clause in FAR 52.227-19.
  
 Gaussian, Inc.
 340 Quinnipiac St., Bldg. 40, Wallingford CT 06492
  
  
 ---------------------------------------------------------------
 Warning -- This program may not be used in any manner that
 competes with the business of Gaussian, Inc. or will provide
 assistance to any competitor of Gaussian, Inc.  The licensee
 of this program is prohibited from giving any competitor of
 Gaussian, Inc. access to this program.  By using this program,
 the user acknowledges that Gaussian, Inc. is engaged in the
 business of creating and licensing software in the field of
 computational chemistry and represents and warrants to the
 licensee that it is not a competitor of Gaussian, Inc. and that
 it will not use this program in any manner prohibited above.
 ---------------------------------------------------------------
  

 Cite this work as:
 Gaussian 16, Revision C.02,
 M. J. Frisch, G. W. Trucks, H. B. Schlegel, G. E. Scuseria, 
 M. A. Robb, J. R. Cheeseman, G. Scalmani, V. Barone, 
 G. A. Petersson, H. Nakatsuji, X. Li, M. Caricato, A. V. Marenich, 
 J. Bloino, B. G. Janesko, R. Gomperts, B. Mennucci, H. P. Hratchian, 
 J. V. Ortiz, A. F. Izmaylov, J. L. Sonnenberg, D. Williams-Young, 
 F. Ding, F. Lipparini, F. Egidi, J. Goings, B. Peng, A. Petrone, 
 T. Henderson, D. Ranasinghe, V. G. Zakrzewski, J. Gao, N. Rega, 
 G. Zheng, W. Liang, M. Hada, M. Ehara, K. Toyota, R. Fukuda, 
 J. Hasegawa, M. Ishida, T. Nakajima, Y. Honda, O. Kitao, H. Nakai, 
 T. Vreven, K. Throssell, J. A. Montgomery, Jr., J. E. Peralta, 
 F. Ogliaro, M. J. Bearpark, J. J. Heyd, E. N. Brothers, K. N. Kudin, 
 V. N. Staroverov, T. A. Keith, R. Kobayashi, J. Normand, 
 K. Raghavachari, A. P. Rendell, J. C. Burant, S. S. Iyengar, 
 J. Tomasi, M. Cossi, J. M. Millam, M. Klene, C. Adamo, R. Cammi, 
 J. W. Ochterski, R. L. Martin, K. Morokuma, O. Farkas, 
 J. B. Foresman, and D. J. Fox, Gaussian, Inc., Wallingford CT, 2019.
 
 ******************************************
 Gaussian 16:  ES64L-G16RevC.02  7-Dec-2021
                21-Feb-2025 
 ******************************************
 %chk=lactic_acid.003.tddft.chk
 %mem=9600MB
 SetSPE:  set environment variable "OMP_PROC_BIND" = "true"
 SetSPE:  set environment variable "OMP_PLACES" = "{48},{49},{50},{51},{52},{53},{54},{55}"
 ------------------------------
 # td=(nstat=16) b3lyp/6-31g(d)
 ------------------------------
 1/38=1,172=1/1;
 2/12=2,17=6,18=5,40=1/2;
 3/5=1,6=6,7=1,11=9,25=1,30=1,74=-5/1,2,3,8;
 4//1;
 5/5=2,38=5/2;
 8/6=1,10=2,108=16/1;
 9/41=16,42=1,70=2/14;
 6/7=2,8=2,9=2,10=2/1;
 99/5=1,9=1/99;
 ------------------
 lactic_acid | No.3
 ------------------
 Symbolic Z-matrix:
 Charge =  0 Multiplicity = 1
 C                    -0.65238  -0.28163  -0.38825 
 H                    -0.70462  -0.84627  -1.32695 
 O                    -1.10764  -1.10848   0.72819 
 H                    -2.05202  -1.33325   0.6023 
 C                    -1.45245   1.01796  -0.48165 
 H                    -1.07936   1.65772  -1.28934 
 H                    -2.50564   0.79552  -0.69172 
 H                    -1.38252   1.5635    0.46182 
 C                     0.82386  -0.05164  -0.12249 
 O                     1.7445   -0.54648  -0.77505 
 O                     1.03917   0.80006   0.93355 
 H                     2.00172   0.89384   1.10461 
 
                          Input orientation:                          
 ---------------------------------------------------------------------
 Center     Atomic      Atomic             Coordinates (Angstroms)
 Number     Number       Type             X           Y           Z
 ---------------------------------------------------------------------
      1          6           0       -0.652383   -0.281632   -0.388247
      2          1           0       -0.704618   -0.846268   -1.326946
      3          8           0       -1.107637   -1.108483    0.728192
      4          1           0       -2.052017   -1.333249    0.602301
      5          6           0       -1.452446    1.017964   -0.481645
      6          1           0       -1.079358    1.657724   -1.289340
      7          1           0       -2.505637    0.795524   -0.691723
      8          1           0       -1.382522    1.563503    0.461819
      9          6           0        0.823857   -0.051638   -0.122485
     10          8           0        1.744497   -0.546483   -0.775052
     11          8           0        1.039171    0.800062    0.933553
     12          1           0        2.001725    0.893835    1.104608
 ---------------------------------------------------------------------
                    Distance matrix (angstroms):
                    1          2          3          4          5
     1  C    0.000000
     2  H    1.096676   0.000000
     3  O    1.461976   2.110633   0.000000
     4  H    2.011482   2.403046   0.978888   0.000000
     5  C    1.528978   2.179252   2.470703   2.657560   0.000000
     6  H    2.180683   2.532157   3.423907   3.670189   1.095837
     7  H    2.164928   2.518464   2.756049   2.532182   1.096733
     8  H    2.158759   3.076724   2.699264   2.976429   1.092074
     9  C    1.517502   2.101999   2.360348   3.230866   2.540590
    10  O    2.442294   2.528364   3.272653   4.114562   3.571278
    11  O    2.403866   3.295612   2.879844   3.770436   2.873747
    12  H    3.264143   4.032952   3.717405   4.652423   3.803012
                    6          7          8          9         10
     6  H    0.000000
     7  H    1.770539   0.000000
     8  H    1.779703   1.783771   0.000000
     9  C    2.811707   3.482420   2.796104   0.000000
    10  O    3.619002   4.457753   3.969904   1.232190   0.000000
    11  O    3.188260   3.899642   2.582629   1.373670   2.286919
    12  H    3.975875   4.853121   3.509239   1.946034   2.381975
                   11         12
    11  O    0.000000
    12  H    0.982122   0.000000
 Stoichiometry    C3H6O3
 Framework group  C1[X(C3H6O3)]
 Deg. of freedom    30
 Full point group                 C1      NOp   1
 Largest Abelian subgroup         C1      NOp   1
 Largest concise Abelian subgroup C1      NOp   1
                         Standard orientation:                         
 ---------------------------------------------------------------------
 Center     Atomic      Atomic             Coordinates (Angstroms)
 Number     Number       Type             X           Y           Z
 ---------------------------------------------------------------------
      1          6           0       -0.652383   -0.281632   -0.388247
      2          1           0       -0.704618   -0.846268   -1.326946
      3          8           0       -1.107637   -1.108483    0.728192
      4          1           0       -2.052017   -1.333249    0.602301
      5          6           0       -1.452446    1.017964   -0.481645
      6          1           0       -1.079358    1.657724   -1.289340
      7          1           0       -2.505637    0.795524   -0.691723
      8          1           0       -1.382522    1.563503    0.461819
      9          6           0        0.823857   -0.051638   -0.122485
     10          8           0        1.744497   -0.546483   -0.775052
     11          8           0        1.039171    0.800062    0.933553
     12          1           0        2.001725    0.893835    1.104608
 ---------------------------------------------------------------------
 Rotational constants (GHZ):           5.0782162           2.7391954           2.5342287
 Standard basis: 6-31G(d) (6D, 7F)
 There are   102 symmetry adapted cartesian basis functions of A   symmetry.
 There are   102 symmetry adapted basis functions of A   symmetry.
   102 basis functions,   192 primitive gaussians,   102 cartesian basis functions
    24 alpha electrons       24 beta electrons
       nuclear repulsion energy       246.3161229298 Hartrees.
 NAtoms=   12 NActive=   12 NUniq=   12 SFac= 1.00D+00 NAtFMM=   60 NAOKFM=F Big=F
 Integral buffers will be    131072 words long.
 Regular integral format.
 Two-electron integral symmetry is turned on.
 One-electron integrals computed using PRISM.
 NBasis=   102 RedAO= T EigKep=  3.36D-03  NBF=   102
 NBsUse=   102 1.00D-06 EigRej= -1.00D+00 NBFU=   102
 ExpMin= 1.61D-01 ExpMax= 5.48D+03 ExpMxC= 8.25D+02 IAcc=3 IRadAn=         5 AccDes= 0.00D+00
 Harris functional with IExCor=  402 and IRadAn=       5 diagonalized for initial guess.
 HarFok:  IExCor=  402 AccDes= 0.00D+00 IRadAn=         5 IDoV= 1 UseB2=F ITyADJ=14
 ICtDFT=  3500011 ScaDFX=  1.000000  1.000000  1.000000  1.000000
 FoFCou: FMM=F IPFlag=           0 FMFlag=      100000 FMFlg1=           0
         NFxFlg=           0 DoJE=T BraDBF=F KetDBF=T FulRan=T
         wScrn=  0.000000 ICntrl=       500 IOpCl=  0 I1Cent=   200000004 NGrid=           0
         NMat0=    1 NMatS0=      1 NMatT0=    0 NMatD0=    1 NMtDS0=    0 NMtDT0=    0
 Petite list used in FoFCou.
 Keep R1 ints in memory in canonical form, NReq=21214305.
 Requested convergence on RMS density matrix=1.00D-08 within 128 cycles.
 Requested convergence on MAX density matrix=1.00D-06.
 Requested convergence on             energy=1.00D-06.
 No special actions if energy rises.
 Integral accuracy reduced to 1.0D-05 until final iterations.
 Initial convergence to 1.0D-05 achieved.  Increase integral accuracy.
 SCF Done:  E(RB3LYP) =  -343.592725320     A.U. after   14 cycles
            NFock= 14  Conv=0.27D-08     -V/T= 2.0094
 DoSCS=F DFT=T ScalE2(SS,OS)=  1.000000  1.000000
 ExpMin= 1.61D-01 ExpMax= 5.48D+03 ExpMxC= 8.25D+02 IAcc=3 IRadAn=         5 AccDes= 0.00D+00
 HarFok:  IExCor=  205 AccDes= 0.00D+00 IRadAn=         5 IDoV=-2 UseB2=F ITyADJ=14
 ICtDFT= 12500011 ScaDFX=  1.000000  1.000000  1.000000  1.000000
 Range of M.O.s used for correlation:     7   102
 NBasis=   102 NAE=    24 NBE=    24 NFC=     6 NFV=     0
 NROrb=     96 NOA=    18 NOB=    18 NVA=    78 NVB=    78
 Keep R1, R2, and R3 ints in memory in canonical form, NReq=75112043.
 Orbital symmetries:
       Occupied  (A) (A) (A) (A) (A) (A) (A) (A) (A) (A) (A) (A)
                 (A) (A) (A) (A) (A) (A) (A) (A) (A) (A) (A) (A)
       Virtual   (A) (A) (A) (A) (A) (A) (A) (A) (A) (A) (A) (A)
                 (A) (A) (A) (A) (A) (A) (A) (A) (A) (A) (A) (A)
                 (A) (A) (A) (A) (A) (A) (A) (A) (A) (A) (A) (A)
                 (A) (A) (A) (A) (A) (A) (A) (A) (A) (A) (A) (A)
                 (A) (A) (A) (A) (A) (A) (A) (A) (A) (A) (A) (A)
                 (A) (A) (A) (A) (A) (A) (A) (A) (A) (A) (A) (A)
                 (A) (A) (A) (A) (A) (A)
    64 initial guesses have been made.
 Convergence on wavefunction:    0.001000000000000
 Iteration     1 Dimension    64 NMult     0 NNew     64
 CISAX will form    64 AO SS matrices at one time.
 New state      3 was old state      4
 New state      4 was old state      5
 New state      5 was old state      6
 New state      6 was old state      7
 New state      7 was old state      9
 New state      9 was old state     10
 New state     10 was old state     11
 New state     11 was old state     12
 New state     12 was old state     13
 New state     13 was old state     14
 New state     14 was old state     15
 New state     15 was old state     16
 New state     16 was old state     18
 Iteration     2 Dimension    96 NMult    64 NNew     32
 New state      9 was old state     11
 New state     10 was old state      9
 New state     11 was old state     10
 Iteration     3 Dimension   128 NMult    96 NNew     32
 Iteration     4 Dimension   160 NMult   128 NNew     32
 Iteration     5 Dimension   162 NMult   160 NNew      2
 ***********************************************************************
 Excited states from <AA,BB:AA,BB> singles matrix:
 ***********************************************************************
 
 Ground to excited state transition densities written to RWF  633
 Ground to excited state transition electric dipole moments (Au):
       state          X           Y           Z        Dip. S.      Osc.
         1         0.0360     -0.0889      0.0531      0.0120      0.0016
         2         0.0180     -0.0045      0.0491      0.0028      0.0004
         3        -0.2965      0.1138      0.2023      0.1418      0.0268
         4        -0.0088     -0.0472      0.0175      0.0026      0.0005
         5         0.1627     -0.1890     -0.0022      0.0622      0.0121
         6         0.1444     -0.2666     -0.5348      0.3780      0.0783
         7         0.2033     -0.1529      0.0185      0.0651      0.0137
         8        -0.1879     -0.2251     -0.0723      0.0912      0.0194
         9         0.2227      0.2625      0.3013      0.2093      0.0453
        10        -0.0684      0.0133      0.0354      0.0061      0.0013
        11        -0.0116      0.0380      0.0133      0.0018      0.0004
        12        -0.2122     -0.0850     -0.1080      0.0639      0.0153
        13         0.4665     -0.2574      0.0363      0.2852      0.0688
        14        -0.2059      0.0230     -0.0815      0.0496      0.0121
        15         0.0840     -0.0203     -0.1351      0.0257      0.0063
        16        -0.2591      0.0137     -0.0181      0.0676      0.0169
 Ground to excited state transition velocity dipole moments (Au):
       state          X           Y           Z        Dip. S.      Osc.
         1        -0.0043      0.0183     -0.0134      0.0005      0.0018
         2         0.0016     -0.0197     -0.0259      0.0011      0.0031
         3         0.0735     -0.0183     -0.0539      0.0086      0.0203
         4         0.0029      0.0091     -0.0273      0.0008      0.0019
         5        -0.0560      0.0920      0.0124      0.0117      0.0268
         6        -0.0468      0.0714      0.1538      0.0310      0.0664
         7        -0.0636      0.0572     -0.0136      0.0075      0.0158
         8         0.0645      0.0682      0.0060      0.0088      0.0185
         9        -0.0710     -0.0885     -0.1158      0.0263      0.0540
        10         0.0227      0.0284     -0.0269      0.0020      0.0041
        11         0.0052     -0.0050      0.0085      0.0001      0.0002
        12         0.0685      0.0480      0.0183      0.0073      0.0136
        13        -0.1647      0.0900     -0.0195      0.0356      0.0656
        14         0.0919     -0.0179      0.0414      0.0105      0.0191
        15        -0.0304      0.0177      0.0576      0.0046      0.0083
        16         0.0942     -0.0090      0.0051      0.0090      0.0160
 Ground to excited state transition magnetic dipole moments (Au):
       state          X           Y           Z
         1         0.6683     -0.2693     -0.3909
         2         0.0062      0.0097      0.2600
         3         0.0268     -0.3008      0.0181
         4         0.3713     -0.0893      0.1529
         5        -0.2857      0.1610     -0.4697
         6         0.1699     -0.4918      0.5996
         7        -0.5610     -0.6039     -0.6501
         8        -0.2669     -0.1341      0.1917
         9         0.0500      0.2923     -0.1148
        10        -0.2953      0.1959      0.2413
        11        -0.0411      0.1464      0.1595
        12        -0.1596     -0.4662     -0.2474
        13         0.2722      0.0534      0.1935
        14        -0.0468      0.6266      0.7444
        15         0.2212      0.3690     -0.1878
        16         0.2129      0.1654      0.0707
 Ground to excited state transition velocity quadrupole moments (Au):
       state          XX          YY          ZZ          XY          XZ          YZ
         1         0.0076     -0.0116      0.0258     -0.0659      0.0401     -0.0107
         2        -0.0022      0.1493     -0.0704     -0.0044      0.0553     -0.0126
         3         0.5187     -0.1218     -0.0152     -0.1483     -0.1877      0.0212
         4         0.0072     -0.0665     -0.0808      0.1358      0.0795      0.0945
         5         0.0453     -0.2935      0.2429     -0.0976     -0.0019      0.0478
         6         0.1222      0.1603      0.0313      0.5867      0.4638      0.0129
         7         0.1855      0.1016     -0.1900     -0.1581      0.1889      0.0359
         8        -0.2158      0.1570     -0.0151      0.0752      0.2641      0.1406
         9         0.0782      0.1836     -0.1724     -0.0367     -0.2878     -0.0383
        10         0.0870      0.1366     -0.2144      0.1128     -0.2222     -0.0060
        11        -0.0923      0.0181      0.0429     -0.1210     -0.1971     -0.1265
        12         0.1068      0.0381     -0.1384      0.3220      0.0730      0.1223
        13         0.2202      0.0233      0.0115     -0.0471      0.2299     -0.1346
        14        -0.6628     -0.0128      0.2437     -0.1443      0.0220      0.1503
        15        -0.0271     -0.0476     -0.0880      0.0055     -0.1374     -0.1721
        16         0.1194     -0.0865      0.0527     -0.0201     -0.1067      0.1878
 <0|del|b> * <b|rxdel|0> + <0|del|b> * <b|delr+rdel|0>
 Rotatory Strengths (R) in cgs (10**-40 erg-esu-cm/Gauss)
       state          XX          YY          ZZ    R(velocity)    E-M Angle
         1         0.8182      2.7807    -12.9676     -3.1229       97.80
         2        -8.9378    -10.7179     -1.9575     -7.2044      144.62
         3        11.3406     -6.7917     11.6669      5.4053       76.64
         4       -11.4883      1.0760      0.8695     -3.1809      109.19
         5         9.6027     10.5169     40.2797     20.1331       66.29
         6       129.9929     -7.4707    -10.6405     37.2939       69.39
         7       -38.3391     44.7884     15.9244      7.4579       83.68
         8       -28.3788     -8.2758    -19.3448    -18.6665      139.04
         9       -36.7883      8.9494     -7.2581    -11.6990      108.22
        10         2.5317    -11.0141     -7.8292     -5.4372      113.14
        11        -1.4688      1.6030      0.7314      0.2885       80.36
        12       -24.0935    -12.7766    -37.5329    -24.8010      143.28
        13       -18.3099    -26.7182    -40.5268    -28.5183      133.35
        14        13.5325     44.7406    -28.7368      9.8454       81.19
        15        -1.4628    -12.1316     -7.5361     -7.0435      110.30
        16        -2.0683     36.0392      1.7324     11.9011       44.22
 1/2[<0|r|b>*<b|rxdel|0> + (<0|rxdel|b>*<b|r|0>)*]
 Rotatory Strengths (R) in cgs (10**-40 erg-esu-cm/Gauss)
       state          XX          YY          ZZ     R(length)
         1       -17.0314    -16.9256     14.6679     -6.4297
         2        -0.0785      0.0312     -9.0232     -3.0235
         3         5.6124     24.2046     -2.5893      9.0759
         4         2.3079     -2.9849     -1.8932     -0.8567
         5        32.8699     21.5201     -0.7365     17.8845
         6       -17.3414    -92.7225    226.7976     38.9112
         7        80.6707    -65.3063      8.5121      7.9588
         8       -35.4693    -21.3485      9.8043    -15.6712
         9        -7.8733    -54.2499     24.4599    -12.5544
        10       -14.2799     -1.8402     -6.0323     -7.3842
        11        -0.3367     -3.9347     -1.4989     -1.9234
        12       -23.9528    -28.0316    -18.8987    -23.6277
        13       -89.7976      9.7163     -4.9669    -28.3494
        14        -6.8065    -10.1781     42.9212      8.6455
        15       -13.1400      5.2978    -17.9379     -8.5934
        16        39.0112     -1.6024      0.9069     12.7719
  1/2[<0|del|b>*<b|r|0> + (<0|r|b>*<b|del|0>)*] (Au)
       state          X           Y           Z        Dip. S.   Osc.(frdel)
         1        -0.0002     -0.0016     -0.0007      0.0025      0.0017
         2         0.0000      0.0001     -0.0013      0.0012      0.0008
         3        -0.0218     -0.0021     -0.0109      0.0348      0.0232
         4        -0.0000     -0.0004     -0.0005      0.0009      0.0006
         5        -0.0091     -0.0174     -0.0000      0.0265      0.0177
         6        -0.0068     -0.0190     -0.0823      0.1081      0.0720
         7        -0.0129     -0.0087     -0.0003      0.0219      0.0146
         8        -0.0121     -0.0153     -0.0004      0.0279      0.0186
         9        -0.0158     -0.0232     -0.0349      0.0740      0.0493
        10        -0.0016      0.0004     -0.0010      0.0021      0.0014
        11        -0.0001     -0.0002      0.0001      0.0001      0.0001
        12        -0.0145     -0.0041     -0.0020      0.0206      0.0137
        13        -0.0768     -0.0232     -0.0007      0.1007      0.0671
        14        -0.0189     -0.0004     -0.0034      0.0227      0.0151
        15        -0.0026     -0.0004     -0.0078      0.0107      0.0071
        16        -0.0244     -0.0001     -0.0001      0.0246      0.0164

 Excitation energies and oscillator strengths:
 
 Excited State   1:      Singlet-A      5.2820 eV  234.73 nm  f=0.0016  <S**2>=0.000
      23 -> 25        -0.24509
      24 -> 25         0.65811
 This state for optimization and/or second-order correction.
 Total Energy, E(TD-HF/TD-DFT) =  -343.398616597    
 Copying the excited state density for this state as the 1-particle RhoCI density.
 
 Excited State   2:      Singlet-A      6.1529 eV  201.51 nm  f=0.0004  <S**2>=0.000
      23 -> 25         0.65948
      24 -> 25         0.24727
 
 Excited State   3:      Singlet-A      7.7085 eV  160.84 nm  f=0.0268  <S**2>=0.000
      21 -> 25         0.13953
      22 -> 25         0.48535
      23 -> 26        -0.10394
      24 -> 26         0.44548
      24 -> 27         0.12015
 
 Excited State   4:      Singlet-A      7.8800 eV  157.34 nm  f=0.0005  <S**2>=0.000
      20 -> 25        -0.11276
      21 -> 25         0.66920
      24 -> 26        -0.14743
 
 Excited State   5:      Singlet-A      7.9543 eV  155.87 nm  f=0.0121  <S**2>=0.000
      21 -> 25         0.11691
      22 -> 25        -0.16774
      23 -> 26         0.49826
      23 -> 27        -0.23694
      24 -> 26         0.27938
      24 -> 27        -0.25381
 
 Excited State   6:      Singlet-A      8.4563 eV  146.62 nm  f=0.0783  <S**2>=0.000
      20 -> 25        -0.13317
      22 -> 25        -0.39451
      23 -> 26        -0.30770
      23 -> 27         0.15773
      24 -> 26         0.42332
 
 Excited State   7:      Singlet-A      8.6170 eV  143.88 nm  f=0.0137  <S**2>=0.000
      18 -> 25        -0.14594
      20 -> 25         0.63835
      21 -> 25         0.10390
      23 -> 26        -0.10568
      24 -> 27        -0.15857
 
 Excited State   8:      Singlet-A      8.6585 eV  143.19 nm  f=0.0194  <S**2>=0.000
      20 -> 25         0.14047
      22 -> 25        -0.11936
      22 -> 26         0.13947
      23 -> 26         0.27757
      23 -> 27         0.13215
      24 -> 27         0.57773
 
 Excited State   9:      Singlet-A      8.8393 eV  140.26 nm  f=0.0453  <S**2>=0.000
      22 -> 25         0.15764
      22 -> 26         0.11935
      22 -> 27         0.10503
      23 -> 26         0.19846
      23 -> 27         0.58458
      24 -> 27        -0.22278
 
 Excited State  10:      Singlet-A      8.9872 eV  137.96 nm  f=0.0013  <S**2>=0.000
      22 -> 26         0.60004
      22 -> 27         0.29002
      23 -> 27        -0.17346
 
 Excited State  11:      Singlet-A      9.1774 eV  135.10 nm  f=0.0004  <S**2>=0.000
      19 -> 25         0.69450
 
 Excited State  12:      Singlet-A      9.7900 eV  126.64 nm  f=0.0153  <S**2>=0.000
      17 -> 25        -0.12884
      18 -> 25        -0.27254
      21 -> 26        -0.21783
      22 -> 26        -0.26093
      22 -> 27         0.51224
 
 Excited State  13:      Singlet-A      9.8534 eV  125.83 nm  f=0.0688  <S**2>=0.000
      16 -> 25        -0.10121
      17 -> 25         0.28152
      18 -> 25         0.48980
      20 -> 25         0.14277
      21 -> 26        -0.12706
      22 -> 26        -0.11628
      22 -> 27         0.26503
      24 -> 28        -0.14881
 
 Excited State  14:      Singlet-A      9.9492 eV  124.62 nm  f=0.0121  <S**2>=0.000
      17 -> 25         0.10977
      21 -> 26         0.59051
      21 -> 27        -0.21852
      22 -> 26        -0.10657
      22 -> 27         0.23654
 
 Excited State  15:      Singlet-A     10.0067 eV  123.90 nm  f=0.0063  <S**2>=0.000
      17 -> 25         0.11672
      18 -> 25         0.13207
      23 -> 28         0.24281
      23 -> 29        -0.11465
      24 -> 28         0.55446
      24 -> 29        -0.22847
 
 Excited State  16:      Singlet-A     10.2045 eV  121.50 nm  f=0.0169  <S**2>=0.000
      16 -> 25         0.16938
      17 -> 25         0.42578
      18 -> 25        -0.17603
      23 -> 28        -0.16827
      23 -> 29         0.11952
      23 -> 30        -0.18759
      24 -> 28         0.17554
      24 -> 30        -0.34287
 SavETr:  write IOETrn=   770 NScale= 10 NData=  16 NLR=1 NState=   16 LETran=     298.

 **********************************************************************

            Population analysis using the SCF Density.

 **********************************************************************

 Orbital symmetries:
       Occupied  (A) (A) (A) (A) (A) (A) (A) (A) (A) (A) (A) (A)
                 (A) (A) (A) (A) (A) (A) (A) (A) (A) (A) (A) (A)
       Virtual   (A) (A) (A) (A) (A) (A) (A) (A) (A) (A) (A) (A)
                 (A) (A) (A) (A) (A) (A) (A) (A) (A) (A) (A) (A)
                 (A) (A) (A) (A) (A) (A) (A) (A) (A) (A) (A) (A)
                 (A) (A) (A) (A) (A) (A) (A) (A) (A) (A) (A) (A)
                 (A) (A) (A) (A) (A) (A) (A) (A) (A) (A) (A) (A)
                 (A) (A) (A) (A) (A) (A) (A) (A) (A) (A) (A) (A)
                 (A) (A) (A) (A) (A) (A)
 The electronic state is 1-A.
 Alpha  occ. eigenvalues --  -19.19810 -19.15578 -19.14393 -10.32617 -10.26006
 Alpha  occ. eigenvalues --  -10.19237  -1.09447  -1.01619  -1.00716  -0.77769
 Alpha  occ. eigenvalues --   -0.67779  -0.60372  -0.51855  -0.48528  -0.47810
 Alpha  occ. eigenvalues --   -0.44603  -0.42487  -0.41056  -0.38933  -0.38147
 Alpha  occ. eigenvalues --   -0.34650  -0.31654  -0.28316  -0.27206
 Alpha virt. eigenvalues --   -0.01138   0.05949   0.07914   0.13347   0.14356
 Alpha virt. eigenvalues --    0.14764   0.17317   0.19651   0.21240   0.23319
 Alpha virt. eigenvalues --    0.31175   0.34417   0.51027   0.52932   0.55803
 Alpha virt. eigenvalues --    0.56772   0.60287   0.63093   0.63959   0.68602
 Alpha virt. eigenvalues --    0.74767   0.76705   0.79014   0.79545   0.85925
 Alpha virt. eigenvalues --    0.87585   0.88742   0.90628   0.91818   0.94798
 Alpha virt. eigenvalues --    0.97833   0.98812   1.02360   1.02998   1.07404
 Alpha virt. eigenvalues --    1.09930   1.21708   1.28165   1.31643   1.40786
 Alpha virt. eigenvalues --    1.43656   1.46868   1.49134   1.64576   1.67575
 Alpha virt. eigenvalues --    1.71245   1.73540   1.77363   1.78769   1.82565
 Alpha virt. eigenvalues --    1.83208   1.85465   1.87547   1.94367   2.01570
 Alpha virt. eigenvalues --    2.02856   2.12903   2.14566   2.22527   2.27362
 Alpha virt. eigenvalues --    2.32176   2.35141   2.41730   2.45980   2.50901
 Alpha virt. eigenvalues --    2.61146   2.64358   2.73734   2.80976   2.87016
 Alpha virt. eigenvalues --    2.95907   3.04950   3.69806   3.82612   4.09246
 Alpha virt. eigenvalues --    4.20418   4.36561   4.57332
          Condensed to atoms (all electrons):
               1          2          3          4          5          6
     1  C    4.915603   0.369601   0.225231  -0.018058   0.313614  -0.022228
     2  H    0.369601   0.607775  -0.031428  -0.004297  -0.053971   0.001802
     3  O    0.225231  -0.031428   8.282167   0.227240  -0.043535   0.003420
     4  H   -0.018058  -0.004297   0.227240   0.394928  -0.004555  -0.000106
     5  C    0.313614  -0.053971  -0.043535  -0.004555   5.211476   0.344810
     6  H   -0.022228   0.001802   0.003420  -0.000106   0.344810   0.566820
     7  H   -0.025376  -0.004811  -0.002317   0.004360   0.362838  -0.028306
     8  H   -0.025666   0.005206   0.002162  -0.000455   0.367415  -0.023516
     9  C    0.327211  -0.051638  -0.037765   0.005760  -0.026743  -0.000893
    10  O   -0.065168   0.003393   0.000086  -0.000109   0.001729   0.000170
    11  O   -0.092818   0.003604   0.002727  -0.000109   0.000647   0.000121
    12  H    0.009232  -0.000269  -0.000310   0.000030  -0.000392  -0.000045
               7          8          9         10         11         12
     1  C   -0.025376  -0.025666   0.327211  -0.065168  -0.092818   0.009232
     2  H   -0.004811   0.005206  -0.051638   0.003393   0.003604  -0.000269
     3  O   -0.002317   0.002162  -0.037765   0.000086   0.002727  -0.000310
     4  H    0.004360  -0.000455   0.005760  -0.000109  -0.000109   0.000030
     5  C    0.362838   0.367415  -0.026743   0.001729   0.000647  -0.000392
     6  H   -0.028306  -0.023516  -0.000893   0.000170   0.000121  -0.000045
     7  H    0.572985  -0.027850   0.003944  -0.000065   0.000105   0.000012
     8  H   -0.027850   0.519830  -0.010091   0.000059   0.006678  -0.000232
     9  C    0.003944  -0.010091   4.375770   0.564388   0.266586  -0.005548
    10  O   -0.000065   0.000059   0.564388   8.033561  -0.083920   0.008674
    11  O    0.000105   0.006678   0.266586  -0.083920   8.247117   0.217487
    12  H    0.000012  -0.000232  -0.005548   0.008674   0.217487   0.356464
 Mulliken charges:
               1
     1  C    0.088823
     2  H    0.155034
     3  O   -0.627678
     4  H    0.395371
     5  C   -0.473333
     6  H    0.157951
     7  H    0.144482
     8  H    0.186459
     9  C    0.589018
    10  O   -0.462798
    11  O   -0.568226
    12  H    0.414898
 Sum of Mulliken charges =  -0.00000
 Mulliken charges with hydrogens summed into heavy atoms:
               1
     1  C    0.243857
     3  O   -0.232307
     5  C    0.015558
     9  C    0.589018
    10  O   -0.462798
    11  O   -0.153328
 Electronic spatial extent (au):  <R**2>=            566.2701
 Charge=             -0.0000 electrons
 Dipole moment (field-independent basis, Debye):
    X=             -2.0076    Y=              1.3476    Z=             -0.0522  Tot=              2.4185
 Quadrupole moment (field-independent basis, Debye-Ang):
   XX=            -29.5233   YY=            -35.4757   ZZ=            -36.5785
   XY=              5.0675   XZ=              5.2039   YZ=              0.0988
 Traceless Quadrupole moment (field-independent basis, Debye-Ang):
   XX=              4.3358   YY=             -1.6165   ZZ=             -2.7193
   XY=              5.0675   XZ=              5.2039   YZ=              0.0988
 Octapole moment (field-independent basis, Debye-Ang**2):
  XXX=             -4.5772  YYY=             -2.3059  ZZZ=              3.7171  XYY=             -0.4804
  XXY=              0.5497  XXZ=             14.5009  XZZ=              2.8821  YZZ=              1.4251
  YYZ=              1.1337  XYZ=              0.5658
 Hexadecapole moment (field-independent basis, Debye-Ang**3):
 XXXX=           -326.4514 YYYY=           -173.2994 ZZZZ=           -130.8225 XXXY=             44.7562
 XXXZ=             16.2986 YYYX=             14.5460 YYYZ=              2.3230 ZZZX=              3.4014
 ZZZY=              2.8083 XXYY=            -77.3998 XXZZ=            -77.9892 YYZZ=            -48.8405
 XXYZ=              0.8790 YYXZ=              0.5064 ZZXY=              7.0210
 N-N= 2.463161229298D+02 E-N=-1.298104596191D+03  KE= 3.404022847316D+02
 Unable to Open any file for archive entry.
 1\1\GINC-CCC255\SP\RB3LYP TD-FC\6-31G(d)\C3H6O3\ROOT\21-Feb-2025\0\\# 
 td=(nstat=16) b3lyp/6-31g(d)\\lactic_acid | No.3\\0,1\C,0,-0.652383,-0
 .281632,-0.388247\H,0,-0.704618,-0.846268,-1.326946\O,0,-1.107637,-1.1
 08483,0.728192\H,0,-2.052017,-1.333249,0.602301\C,0,-1.452446,1.017964
 ,-0.481645\H,0,-1.079358,1.657724,-1.28934\H,0,-2.505637,0.795524,-0.6
 91723\H,0,-1.382522,1.563503,0.461819\C,0,0.823857,-0.051638,-0.122485
 \O,0,1.744497,-0.546483,-0.775052\O,0,1.039171,0.800062,0.933553\H,0,2
 .001725,0.893835,1.104608\\Version=ES64L-G16RevC.02\State=1-A\HF=-343.
 5927253\RMSD=2.719e-09\PG=C01 [X(C3H6O3)]\\@
 The archive entry for this job was punched.


 TOWERING GENIUS DISDAINS A BEATEN PATH.  IT SEEKS 
 REGIONS HITHERTO UNEXPLORED.

                                -- ABRAHAM LINCOLN
 Job cpu time:       0 days  0 hours  3 minutes 54.0 seconds.
 Elapsed time:       0 days  0 hours  0 minutes 33.9 seconds.
 File lengths (MBytes):  RWF=    178 Int=      0 D2E=      0 Chk=      8 Scr=      1
 Normal termination of Gaussian 16 at Fri Feb 21 14:05:13 2025.
