 Entering Gaussian System, Link 0=/apl/gaussian/16c02/g16/._.g16
 Initial command:
 /apl/gaussian/16c02/g16/l1.exe "/lwork/users/ux8/8286871.ccpbs1/gaussian/Gau-1312779.inp" -scrdir="/lwork/users/ux8/8286871.ccpbs1/gaussian/"
 Default CPUs for threads: 104,105,106,107,108,109,110,111
 Default is to use a total of   8 processors:
                                8 via shared-memory
                                1 via Linda
 Entering Link 1 = /apl/gaussian/16c02/g16/l1.exe PID=   1312780.
  
 Copyright (c) 1988-2021, Gaussian, Inc.  All Rights Reserved.
  
 This is part of the Gaussian(R) 16 program.  It is based on
 the Gaussian(R) 09 system (copyright 2009, Gaussian, Inc.),
 the Gaussian(R) 03 system (copyright 2003, Gaussian, Inc.),
 the Gaussian(R) 98 system (copyright 1998, Gaussian, Inc.),
 the Gaussian(R) 94 system (copyright 1995, Gaussian, Inc.),
 the Gaussian 92(TM) system (copyright 1992, Gaussian, Inc.),
 the Gaussian 90(TM) system (copyright 1990, Gaussian, Inc.),
 the Gaussian 88(TM) system (copyright 1988, Gaussian, Inc.),
 the Gaussian 86(TM) system (copyright 1986, Carnegie Mellon
 University), and the Gaussian 82(TM) system (copyright 1983,
 Carnegie Mellon University). Gaussian is a federally registered
 trademark of Gaussian, Inc.
  
 This software contains proprietary and confidential information,
 including trade secrets, belonging to Gaussian, Inc.
  
 This software is provided under written license and may be
 used, copied, transmitted, or stored only in accord with that
 written license.
  
 The following legend is applicable only to US Government
 contracts under FAR:
  
                    RESTRICTED RIGHTS LEGEND
  
 Use, reproduction and disclosure by the US Government is
 subject to restrictions as set forth in subparagraphs (a)
 and (c) of the Commercial Computer Software - Restricted
 Rights clause in FAR 52.227-19.
  
 Gaussian, Inc.
 340 Quinnipiac St., Bldg. 40, Wallingford CT 06492
  
  
 ---------------------------------------------------------------
 Warning -- This program may not be used in any manner that
 competes with the business of Gaussian, Inc. or will provide
 assistance to any competitor of Gaussian, Inc.  The licensee
 of this program is prohibited from giving any competitor of
 Gaussian, Inc. access to this program.  By using this program,
 the user acknowledges that Gaussian, Inc. is engaged in the
 business of creating and licensing software in the field of
 computational chemistry and represents and warrants to the
 licensee that it is not a competitor of Gaussian, Inc. and that
 it will not use this program in any manner prohibited above.
 ---------------------------------------------------------------
  

 Cite this work as:
 Gaussian 16, Revision C.02,
 M. J. Frisch, G. W. Trucks, H. B. Schlegel, G. E. Scuseria, 
 M. A. Robb, J. R. Cheeseman, G. Scalmani, V. Barone, 
 G. A. Petersson, H. Nakatsuji, X. Li, M. Caricato, A. V. Marenich, 
 J. Bloino, B. G. Janesko, R. Gomperts, B. Mennucci, H. P. Hratchian, 
 J. V. Ortiz, A. F. Izmaylov, J. L. Sonnenberg, D. Williams-Young, 
 F. Ding, F. Lipparini, F. Egidi, J. Goings, B. Peng, A. Petrone, 
 T. Henderson, D. Ranasinghe, V. G. Zakrzewski, J. Gao, N. Rega, 
 G. Zheng, W. Liang, M. Hada, M. Ehara, K. Toyota, R. Fukuda, 
 J. Hasegawa, M. Ishida, T. Nakajima, Y. Honda, O. Kitao, H. Nakai, 
 T. Vreven, K. Throssell, J. A. Montgomery, Jr., J. E. Peralta, 
 F. Ogliaro, M. J. Bearpark, J. J. Heyd, E. N. Brothers, K. N. Kudin, 
 V. N. Staroverov, T. A. Keith, R. Kobayashi, J. Normand, 
 K. Raghavachari, A. P. Rendell, J. C. Burant, S. S. Iyengar, 
 J. Tomasi, M. Cossi, J. M. Millam, M. Klene, C. Adamo, R. Cammi, 
 J. W. Ochterski, R. L. Martin, K. Morokuma, O. Farkas, 
 J. B. Foresman, and D. J. Fox, Gaussian, Inc., Wallingford CT, 2019.
 
 ******************************************
 Gaussian 16:  ES64L-G16RevC.02  7-Dec-2021
                21-Feb-2025 
 ******************************************
 %chk=lactic_acid.014.tddft.chk
 %mem=9600MB
 SetSPE:  set environment variable "OMP_PROC_BIND" = "true"
 SetSPE:  set environment variable "OMP_PLACES" = "{104},{105},{106},{107},{108},{109},{110},{111}"
 ------------------------------
 # td=(nstat=16) b3lyp/6-31g(d)
 ------------------------------
 1/38=1,172=1/1;
 2/12=2,17=6,18=5,40=1/2;
 3/5=1,6=6,7=1,11=9,25=1,30=1,74=-5/1,2,3,8;
 4//1;
 5/5=2,38=5/2;
 8/6=1,10=2,108=16/1;
 9/41=16,42=1,70=2/14;
 6/7=2,8=2,9=2,10=2/1;
 99/5=1,9=1/99;
 -------------------
 lactic_acid | No.14
 -------------------
 Symbolic Z-matrix:
 Charge =  0 Multiplicity = 1
 C                    -0.66675  -0.12953  -0.37631 
 H                    -0.71686  -0.23922  -1.47316 
 O                    -0.9816   -1.39682   0.26184 
 H                    -1.8676   -1.69382  -0.02726 
 C                    -1.60755   0.98495   0.07941 
 H                    -1.3146    1.94465  -0.35374 
 H                    -2.63502   0.76049  -0.22853 
 H                    -1.57827   1.07465   1.16887 
 C                     0.77961   0.20118  -0.05195 
 O                     1.20597   1.3475    0.12279 
 O                     1.59602  -0.89653  -0.03012 
 H                     2.51741  -0.6196    0.17084 
 
                          Input orientation:                          
 ---------------------------------------------------------------------
 Center     Atomic      Atomic             Coordinates (Angstroms)
 Number     Number       Type             X           Y           Z
 ---------------------------------------------------------------------
      1          6           0       -0.666753   -0.129532   -0.376313
      2          1           0       -0.716857   -0.239219   -1.473160
      3          8           0       -0.981596   -1.396816    0.261836
      4          1           0       -1.867604   -1.693824   -0.027255
      5          6           0       -1.607553    0.984949    0.079407
      6          1           0       -1.314596    1.944646   -0.353744
      7          1           0       -2.635024    0.760486   -0.228530
      8          1           0       -1.578273    1.074654    1.168866
      9          6           0        0.779608    0.201184   -0.051947
     10          8           0        1.205969    1.347499    0.122793
     11          8           0        1.596019   -0.896527   -0.030116
     12          1           0        2.517409   -0.619601    0.170837
 ---------------------------------------------------------------------
                    Distance matrix (angstroms):
                    1          2          3          4          5
     1  C    0.000000
     2  H    1.103456   0.000000
     3  O    1.453399   2.102458   0.000000
     4  H    2.002722   2.351752   0.978160   0.000000
     5  C    1.528023   2.168500   2.469394   2.693479   0.000000
     6  H    2.173114   2.525797   3.413971   3.694709   1.092914
     7  H    2.165193   2.495572   2.761926   2.579357   1.095858
     8  H    2.160674   3.073858   2.699424   3.029668   1.093538
     9  C    1.518732   2.110263   2.398730   3.255671   2.515965
    10  O    2.436763   2.960068   3.512270   4.326547   2.837117
    11  O    2.414181   2.804251   2.641898   3.554205   3.716829
    12  H    3.267786   3.647999   3.585440   4.519019   4.426991
                    6          7          8          9         10
     6  H    0.000000
     7  H    1.778045   0.000000
     8  H    1.773345   1.779927   0.000000
     9  C    2.741611   3.464637   2.795163   0.000000
    10  O    2.633803   3.901441   2.986757   1.235458   0.000000
    11  O    4.080279   4.548273   3.924187   1.368201   2.282799
    12  H    4.640561   5.348991   4.543256   1.934754   2.364670
                   11         12
    11  O    0.000000
    12  H    0.982868   0.000000
 Stoichiometry    C3H6O3
 Framework group  C1[X(C3H6O3)]
 Deg. of freedom    30
 Full point group                 C1      NOp   1
 Largest Abelian subgroup         C1      NOp   1
 Largest concise Abelian subgroup C1      NOp   1
                         Standard orientation:                         
 ---------------------------------------------------------------------
 Center     Atomic      Atomic             Coordinates (Angstroms)
 Number     Number       Type             X           Y           Z
 ---------------------------------------------------------------------
      1          6           0        0.666753   -0.129532    0.376313
      2          1           0        0.716857   -0.239219    1.473160
      3          8           0        0.981596   -1.396816   -0.261836
      4          1           0        1.867604   -1.693824    0.027255
      5          6           0        1.607553    0.984949   -0.079407
      6          1           0        1.314596    1.944646    0.353744
      7          1           0        2.635024    0.760486    0.228530
      8          1           0        1.578273    1.074654   -1.168866
      9          6           0       -0.779608    0.201184    0.051947
     10          8           0       -1.205969    1.347499   -0.122793
     11          8           0       -1.596019   -0.896527    0.030116
     12          1           0       -2.517409   -0.619601   -0.170837
 ---------------------------------------------------------------------
 Rotational constants (GHZ):           5.0121552           3.3311919           2.1171494
 Standard basis: 6-31G(d) (6D, 7F)
 There are   102 symmetry adapted cartesian basis functions of A   symmetry.
 There are   102 symmetry adapted basis functions of A   symmetry.
   102 basis functions,   192 primitive gaussians,   102 cartesian basis functions
    24 alpha electrons       24 beta electrons
       nuclear repulsion energy       246.3716047668 Hartrees.
 NAtoms=   12 NActive=   12 NUniq=   12 SFac= 1.00D+00 NAtFMM=   60 NAOKFM=F Big=F
 Integral buffers will be    131072 words long.
 Regular integral format.
 Two-electron integral symmetry is turned on.
 One-electron integrals computed using PRISM.
 NBasis=   102 RedAO= T EigKep=  3.21D-03  NBF=   102
 NBsUse=   102 1.00D-06 EigRej= -1.00D+00 NBFU=   102
 ExpMin= 1.61D-01 ExpMax= 5.48D+03 ExpMxC= 8.25D+02 IAcc=3 IRadAn=         5 AccDes= 0.00D+00
 Harris functional with IExCor=  402 and IRadAn=       5 diagonalized for initial guess.
 HarFok:  IExCor=  402 AccDes= 0.00D+00 IRadAn=         5 IDoV= 1 UseB2=F ITyADJ=14
 ICtDFT=  3500011 ScaDFX=  1.000000  1.000000  1.000000  1.000000
 FoFCou: FMM=F IPFlag=           0 FMFlag=      100000 FMFlg1=           0
         NFxFlg=           0 DoJE=T BraDBF=F KetDBF=T FulRan=T
         wScrn=  0.000000 ICntrl=       500 IOpCl=  0 I1Cent=   200000004 NGrid=           0
         NMat0=    1 NMatS0=      1 NMatT0=    0 NMatD0=    1 NMtDS0=    0 NMtDT0=    0
 Petite list used in FoFCou.
 Keep R1 ints in memory in canonical form, NReq=21214305.
 Requested convergence on RMS density matrix=1.00D-08 within 128 cycles.
 Requested convergence on MAX density matrix=1.00D-06.
 Requested convergence on             energy=1.00D-06.
 No special actions if energy rises.
 Integral accuracy reduced to 1.0D-05 until final iterations.
 Initial convergence to 1.0D-05 achieved.  Increase integral accuracy.
 SCF Done:  E(RB3LYP) =  -343.594032817     A.U. after   14 cycles
            NFock= 14  Conv=0.32D-08     -V/T= 2.0094
 DoSCS=F DFT=T ScalE2(SS,OS)=  1.000000  1.000000
 ExpMin= 1.61D-01 ExpMax= 5.48D+03 ExpMxC= 8.25D+02 IAcc=3 IRadAn=         5 AccDes= 0.00D+00
 HarFok:  IExCor=  205 AccDes= 0.00D+00 IRadAn=         5 IDoV=-2 UseB2=F ITyADJ=14
 ICtDFT= 12500011 ScaDFX=  1.000000  1.000000  1.000000  1.000000
 Range of M.O.s used for correlation:     7   102
 NBasis=   102 NAE=    24 NBE=    24 NFC=     6 NFV=     0
 NROrb=     96 NOA=    18 NOB=    18 NVA=    78 NVB=    78
 Keep R1, R2, and R3 ints in memory in canonical form, NReq=75112043.
 Orbital symmetries:
       Occupied  (A) (A) (A) (A) (A) (A) (A) (A) (A) (A) (A) (A)
                 (A) (A) (A) (A) (A) (A) (A) (A) (A) (A) (A) (A)
       Virtual   (A) (A) (A) (A) (A) (A) (A) (A) (A) (A) (A) (A)
                 (A) (A) (A) (A) (A) (A) (A) (A) (A) (A) (A) (A)
                 (A) (A) (A) (A) (A) (A) (A) (A) (A) (A) (A) (A)
                 (A) (A) (A) (A) (A) (A) (A) (A) (A) (A) (A) (A)
                 (A) (A) (A) (A) (A) (A) (A) (A) (A) (A) (A) (A)
                 (A) (A) (A) (A) (A) (A) (A) (A) (A) (A) (A) (A)
                 (A) (A) (A) (A) (A) (A)
    64 initial guesses have been made.
 Convergence on wavefunction:    0.001000000000000
 Iteration     1 Dimension    64 NMult     0 NNew     64
 CISAX will form    64 AO SS matrices at one time.
 New state      3 was old state      5
 New state      4 was old state      6
 New state      5 was old state      4
 New state      6 was old state      7
 New state      7 was old state      9
 New state      9 was old state     10
 New state     10 was old state     11
 New state     11 was old state     13
 New state     12 was old state     15
 New state     13 was old state     14
 New state     14 was old state     12
 New state     15 was old state     17
 New state     16 was old state     18
 Iteration     2 Dimension    96 NMult    64 NNew     32
 Iteration     3 Dimension   128 NMult    96 NNew     32
 Iteration     4 Dimension   158 NMult   128 NNew     30
 ***********************************************************************
 Excited states from <AA,BB:AA,BB> singles matrix:
 ***********************************************************************
 
 Ground to excited state transition densities written to RWF  633
 Ground to excited state transition electric dipole moments (Au):
       state          X           Y           Z        Dip. S.      Osc.
         1         0.0025      0.0125      0.0585      0.0036      0.0005
         2        -0.2416     -0.0414     -0.0876      0.0678      0.0104
         3         0.1417     -0.3874      0.0788      0.1763      0.0335
         4        -0.0601      0.0556     -0.0128      0.0069      0.0013
         5         0.0002      0.0565     -0.0386      0.0047      0.0009
         6        -0.1622     -0.5864     -0.0067      0.3702      0.0770
         7        -0.0211     -0.0812     -0.0306      0.0080      0.0017
         8        -0.2133     -0.1645      0.0146      0.0728      0.0156
         9        -0.4032     -0.1621      0.0025      0.1889      0.0407
        10        -0.0834     -0.1569     -0.0591      0.0351      0.0077
        11        -0.2121      0.1575     -0.0766      0.0756      0.0172
        12        -0.1082      0.0388     -0.0411      0.0149      0.0035
        13         0.0063     -0.1067     -0.1844      0.0454      0.0106
        14         0.2121     -0.0792      0.0706      0.0562      0.0133
        15         0.0541      0.2054     -0.0659      0.0495      0.0119
        16        -0.2178     -0.1638     -0.0499      0.0768      0.0190
 Ground to excited state transition velocity dipole moments (Au):
       state          X           Y           Z        Dip. S.      Osc.
         1         0.0025      0.0004     -0.0169      0.0003      0.0010
         2         0.0575      0.0275      0.0072      0.0041      0.0119
         3        -0.0360      0.1003     -0.0189      0.0117      0.0274
         4        -0.0014     -0.0358      0.0426      0.0031      0.0070
         5        -0.0148     -0.0356      0.0138      0.0017      0.0038
         6         0.0437      0.1801     -0.0045      0.0344      0.0734
         7         0.0083      0.0294      0.0224      0.0014      0.0030
         8         0.0797      0.0624     -0.0159      0.0105      0.0218
         9         0.1304      0.0430     -0.0004      0.0189      0.0389
        10         0.0195      0.0539      0.0554      0.0064      0.0128
        11         0.0658     -0.0470      0.0238      0.0071      0.0139
        12         0.0353     -0.0203      0.0156      0.0019      0.0036
        13        -0.0117      0.0241      0.0738      0.0062      0.0117
        14        -0.0760      0.0222     -0.0268      0.0070      0.0131
        15        -0.0130     -0.0580      0.0441      0.0055      0.0101
        16         0.0913      0.0701      0.0368      0.0146      0.0262
 Ground to excited state transition magnetic dipole moments (Au):
       state          X           Y           Z
         1        -0.3439      0.7427     -0.0851
         2         0.1330      0.2370      0.0919
         3        -0.0603     -0.2031      0.2634
         4        -0.3890     -0.2168     -0.5743
         5        -0.2639      0.0755     -0.3115
         6         0.0137      0.2195     -0.7737
         7        -1.0137     -0.5633      0.0393
         8         0.0539     -0.0634     -0.1223
         9         0.1860     -0.1451     -0.0931
        10        -0.1114      0.3913     -0.3309
        11        -0.0179      0.2480      0.3585
        12        -0.4551     -0.2768     -0.1609
        13         0.1516     -0.0549      0.0170
        14         0.1715     -0.0797      0.3060
        15        -0.2068      0.0168      0.5339
        16        -0.2140     -0.4875      0.3891
 Ground to excited state transition velocity quadrupole moments (Au):
       state          XX          YY          ZZ          XY          XZ          YZ
         1         0.0599      0.0251     -0.0562     -0.0133     -0.0250     -0.0071
         2         0.0394     -0.1487      0.1643      0.1087     -0.0254      0.0409
         3         0.1500      0.1429     -0.0755     -0.3842      0.0593     -0.0359
         4        -0.1392      0.2535     -0.1148      0.0459      0.1714     -0.2360
         5        -0.3309      0.1063      0.1855     -0.1150      0.0201     -0.0638
         6        -0.5867      0.0229      0.0912     -0.2973      0.0196     -0.0298
         7        -0.0403     -0.0646      0.0247      0.0643      0.0035     -0.2346
         8         0.0232     -0.0339     -0.0003     -0.1997     -0.0417      0.0537
         9        -0.3574      0.2335     -0.0365     -0.5200      0.0537      0.0040
        10        -0.0040      0.0362     -0.0094     -0.2219     -0.2983     -0.1273
        11        -0.0671     -0.0534      0.1931      0.0096      0.0448     -0.1241
        12         0.1005     -0.0790      0.1091      0.0181      0.1064     -0.0707
        13        -0.2564     -0.0576      0.4420      0.1236      0.0935     -0.0739
        14         0.1280     -0.0478     -0.2181     -0.0038     -0.0309      0.1115
        15         0.4173     -0.1329     -0.0218      0.1717     -0.0422     -0.1150
        16         0.4726     -0.0111     -0.1657     -0.3343      0.1644     -0.1414
 <0|del|b> * <b|rxdel|0> + <0|del|b> * <b|delr+rdel|0>
 Rotatory Strengths (R) in cgs (10**-40 erg-esu-cm/Gauss)
       state          XX          YY          ZZ    R(velocity)    E-M Angle
         1         3.4813      0.6133     -1.0023      1.0308       86.46
         2        13.2643     15.1475     17.0435     15.1518       36.35
         3       -29.8105    -10.8614    -16.7930    -19.1550      129.30
         4       -10.3882    -30.6779      2.2147    -12.9505      113.57
         5        -9.3966      2.5487     -0.5390     -2.4623      100.47
         6        46.2779      1.6447     50.9543     32.9589       72.99
         7       -16.0129    -12.2038    -25.5994    -17.9387      123.24
         8         4.1310      8.0863     -7.1840      1.6778       81.31
         9        -9.0677     26.9282     21.6809     13.1805       58.74
        10         6.9995    -11.4161      5.6831      0.4222       89.19
        11        -0.8119     -1.0540     -7.0336     -2.9665       96.71
        12         5.6127    -21.5460    -10.1912     -8.7082      122.23
        13         6.8366     -8.8278     -1.7123     -1.2345       98.31
        14        -9.1296    -29.6138     -6.9611    -15.2348      139.93
        15        27.1427     19.7731      2.6169     16.5109       53.42
        16       -41.5476     -5.5624    -27.8562    -24.9887      119.63
 1/2[<0|r|b>*<b|rxdel|0> + (<0|rxdel|b>*<b|r|0>)*]
 Rotatory Strengths (R) in cgs (10**-40 erg-esu-cm/Gauss)
       state          XX          YY          ZZ     R(length)
         1         0.6188     -6.5646      3.5196     -0.8087
         2        22.7234      6.9310      5.6920     11.7821
         3         6.0385    -55.6421    -14.6801    -21.4279
         4       -16.5253      8.5259     -5.2012     -4.4002
         5         0.0307     -3.0191     -8.5030     -3.8305
         6         1.5706     91.0209     -3.6536     29.6460
         7       -15.1208    -32.3450      0.8484    -15.5392
         8         8.1357     -7.3732      1.2608      0.6745
         9        53.0476    -16.6327      0.1641     12.1930
        10        -6.5731     43.4032    -13.8278      7.6674
        11        -2.6893    -27.6180     19.4246     -3.6275
        12       -34.8227      7.6022     -4.6803    -10.6336
        13        -0.6745     -4.1468      2.2170     -0.8681
        14       -25.7188     -4.4647    -15.2866    -15.1567
        15         7.9060     -2.4399     24.8852     10.1171
        16       -32.9736    -56.4839     13.7425    -25.2383
  1/2[<0|del|b>*<b|r|0> + (<0|r|b>*<b|del|0>)*] (Au)
       state          X           Y           Z        Dip. S.   Osc.(frdel)
         1         0.0000      0.0000     -0.0010      0.0010      0.0007
         2        -0.0139     -0.0011     -0.0006      0.0157      0.0104
         3        -0.0051     -0.0388     -0.0015      0.0454      0.0303
         4         0.0001     -0.0020     -0.0005      0.0024      0.0016
         5        -0.0000     -0.0020     -0.0005      0.0025      0.0017
         6        -0.0071     -0.1056      0.0000      0.1126      0.0751
         7        -0.0002     -0.0024     -0.0007      0.0032      0.0022
         8        -0.0170     -0.0103     -0.0002      0.0275      0.0183
         9        -0.0526     -0.0070     -0.0000      0.0596      0.0397
        10        -0.0016     -0.0085     -0.0033      0.0134      0.0089
        11        -0.0139     -0.0074     -0.0018      0.0232      0.0155
        12        -0.0038     -0.0008     -0.0006      0.0052      0.0035
        13        -0.0001     -0.0026     -0.0136      0.0163      0.0108
        14        -0.0161     -0.0018     -0.0019      0.0198      0.0132
        15        -0.0007     -0.0119     -0.0029      0.0155      0.0104
        16        -0.0199     -0.0115     -0.0018      0.0332      0.0221

 Excitation energies and oscillator strengths:
 
 Excited State   1:      Singlet-A      5.4090 eV  229.22 nm  f=0.0005  <S**2>=0.000
      24 -> 25         0.70016
 This state for optimization and/or second-order correction.
 Total Energy, E(TD-HF/TD-DFT) =  -343.395254739    
 Copying the excited state density for this state as the 1-particle RhoCI density.
 
 Excited State   2:      Singlet-A      6.2696 eV  197.75 nm  f=0.0104  <S**2>=0.000
      23 -> 25         0.70359
 
 Excited State   3:      Singlet-A      7.7571 eV  159.83 nm  f=0.0335  <S**2>=0.000
      21 -> 25        -0.11083
      22 -> 25         0.52956
      24 -> 26        -0.40527
      24 -> 27        -0.16687
 
 Excited State   4:      Singlet-A      8.0146 eV  154.70 nm  f=0.0013  <S**2>=0.000
      21 -> 25        -0.11319
      23 -> 26         0.58021
      23 -> 27        -0.36960
 
 Excited State   5:      Singlet-A      8.0470 eV  154.07 nm  f=0.0009  <S**2>=0.000
      20 -> 25         0.11436
      21 -> 25         0.66988
      23 -> 26         0.10197
 
 Excited State   6:      Singlet-A      8.4894 eV  146.05 nm  f=0.0770  <S**2>=0.000
      22 -> 25         0.34695
      24 -> 26         0.55880
      24 -> 27        -0.18807
 
 Excited State   7:      Singlet-A      8.6158 eV  143.90 nm  f=0.0017  <S**2>=0.000
      18 -> 25         0.20514
      20 -> 25         0.64403
      21 -> 25        -0.10996
      24 -> 27         0.11683
 
 Excited State   8:      Singlet-A      8.7531 eV  141.65 nm  f=0.0156  <S**2>=0.000
      22 -> 25         0.11000
      22 -> 26        -0.10744
      23 -> 26         0.31977
      23 -> 27         0.50937
      24 -> 27         0.32426
 
 Excited State   9:      Singlet-A      8.7954 eV  140.97 nm  f=0.0407  <S**2>=0.000
      20 -> 25        -0.10574
      22 -> 25         0.19178
      22 -> 26        -0.11379
      23 -> 26        -0.20250
      23 -> 27        -0.29120
      24 -> 27         0.53771
 
 Excited State  10:      Singlet-A      9.0059 eV  137.67 nm  f=0.0077  <S**2>=0.000
      22 -> 26         0.59271
      22 -> 27         0.33770
 
 Excited State  11:      Singlet-A      9.2892 eV  133.47 nm  f=0.0172  <S**2>=0.000
      19 -> 25         0.68461
 
 Excited State  12:      Singlet-A      9.5322 eV  130.07 nm  f=0.0035  <S**2>=0.000
      18 -> 25         0.63856
      20 -> 25        -0.19704
      23 -> 28         0.18889
 
 Excited State  13:      Singlet-A      9.5603 eV  129.69 nm  f=0.0106  <S**2>=0.000
      18 -> 25        -0.18239
      23 -> 28         0.65914
 
 Excited State  14:      Singlet-A      9.6851 eV  128.01 nm  f=0.0133  <S**2>=0.000
      17 -> 25         0.13832
      22 -> 27         0.16105
      24 -> 28         0.65901
 
 Excited State  15:      Singlet-A      9.8181 eV  126.28 nm  f=0.0119  <S**2>=0.000
      17 -> 25        -0.13032
      21 -> 26         0.20164
      22 -> 26        -0.30213
      22 -> 27         0.55214
      24 -> 28        -0.12062
 
 Excited State  16:      Singlet-A     10.1101 eV  122.63 nm  f=0.0190  <S**2>=0.000
      21 -> 26         0.59549
      21 -> 27        -0.26894
      22 -> 27        -0.17736
 SavETr:  write IOETrn=   770 NScale= 10 NData=  16 NLR=1 NState=   16 LETran=     298.

 **********************************************************************

            Population analysis using the SCF Density.

 **********************************************************************

 Orbital symmetries:
       Occupied  (A) (A) (A) (A) (A) (A) (A) (A) (A) (A) (A) (A)
                 (A) (A) (A) (A) (A) (A) (A) (A) (A) (A) (A) (A)
       Virtual   (A) (A) (A) (A) (A) (A) (A) (A) (A) (A) (A) (A)
                 (A) (A) (A) (A) (A) (A) (A) (A) (A) (A) (A) (A)
                 (A) (A) (A) (A) (A) (A) (A) (A) (A) (A) (A) (A)
                 (A) (A) (A) (A) (A) (A) (A) (A) (A) (A) (A) (A)
                 (A) (A) (A) (A) (A) (A) (A) (A) (A) (A) (A) (A)
                 (A) (A) (A) (A) (A) (A) (A) (A) (A) (A) (A) (A)
                 (A) (A) (A) (A) (A) (A)
 The electronic state is 1-A.
 Alpha  occ. eigenvalues --  -19.19636 -19.15446 -19.14262 -10.32643 -10.26279
 Alpha  occ. eigenvalues --  -10.18607  -1.09453  -1.01703  -1.00603  -0.77348
 Alpha  occ. eigenvalues --   -0.68147  -0.58879  -0.52454  -0.50184  -0.47468
 Alpha  occ. eigenvalues --   -0.43830  -0.41737  -0.40585  -0.38853  -0.37612
 Alpha  occ. eigenvalues --   -0.34695  -0.31439  -0.27931  -0.27477
 Alpha virt. eigenvalues --   -0.00781   0.06498   0.07987   0.11699   0.14056
 Alpha virt. eigenvalues --    0.15362   0.17104   0.20786   0.23152   0.23976
 Alpha virt. eigenvalues --    0.30898   0.35411   0.52511   0.53180   0.56630
 Alpha virt. eigenvalues --    0.57620   0.60377   0.62312   0.65262   0.68819
 Alpha virt. eigenvalues --    0.72108   0.77140   0.78431   0.81424   0.84671
 Alpha virt. eigenvalues --    0.86935   0.88633   0.90654   0.91533   0.95102
 Alpha virt. eigenvalues --    0.96850   0.99021   1.00089   1.05807   1.07175
 Alpha virt. eigenvalues --    1.10183   1.17249   1.30518   1.32563   1.39936
 Alpha virt. eigenvalues --    1.43777   1.47723   1.57153   1.60037   1.67051
 Alpha virt. eigenvalues --    1.73860   1.74142   1.75590   1.79422   1.82381
 Alpha virt. eigenvalues --    1.83708   1.88721   1.91342   1.94630   1.99297
 Alpha virt. eigenvalues --    2.03516   2.08185   2.14708   2.19788   2.25408
 Alpha virt. eigenvalues --    2.32834   2.33479   2.44988   2.47665   2.51884
 Alpha virt. eigenvalues --    2.58082   2.63766   2.66555   2.80775   2.86812
 Alpha virt. eigenvalues --    2.97042   3.08374   3.70930   3.84420   4.10630
 Alpha virt. eigenvalues --    4.18473   4.32932   4.55618
          Condensed to atoms (all electrons):
               1          2          3          4          5          6
     1  C    4.969083   0.355199   0.220760  -0.017096   0.354489  -0.020821
     2  H    0.355199   0.611004  -0.031315  -0.005704  -0.053880   0.002133
     3  O    0.220760  -0.031315   8.275952   0.227249  -0.047951   0.003548
     4  H   -0.017096  -0.005704   0.227249   0.394650  -0.002032  -0.000141
     5  C    0.354489  -0.053880  -0.047951  -0.002032   5.161059   0.343644
     6  H   -0.020821   0.002133   0.003548  -0.000141   0.343644   0.543305
     7  H   -0.029794  -0.004305  -0.000790   0.002913   0.361420  -0.027062
     8  H   -0.029818   0.005432   0.002185  -0.000531   0.373743  -0.022359
     9  C    0.298999  -0.037328  -0.036946   0.005490  -0.044464  -0.001707
    10  O   -0.080625   0.001096   0.000837  -0.000086   0.002014   0.006309
    11  O   -0.088471  -0.000301   0.004081  -0.000011   0.002872   0.000085
    12  H    0.009717  -0.000413  -0.000225   0.000028  -0.000238  -0.000014
               7          8          9         10         11         12
     1  C   -0.029794  -0.029818   0.298999  -0.080625  -0.088471   0.009717
     2  H   -0.004305   0.005432  -0.037328   0.001096  -0.000301  -0.000413
     3  O   -0.000790   0.002185  -0.036946   0.000837   0.004081  -0.000225
     4  H    0.002913  -0.000531   0.005490  -0.000086  -0.000011   0.000028
     5  C    0.361420   0.373743  -0.044464   0.002014   0.002872  -0.000238
     6  H   -0.027062  -0.022359  -0.001707   0.006309   0.000085  -0.000014
     7  H    0.585275  -0.030153   0.005418   0.000424  -0.000036   0.000003
     8  H   -0.030153   0.536087  -0.006867   0.001436   0.000016  -0.000015
     9  C    0.005418  -0.006867   4.389761   0.552900   0.289880  -0.007359
    10  O    0.000424   0.001436   0.552900   8.059892  -0.080183   0.008105
    11  O   -0.000036   0.000016   0.289880  -0.080183   8.212374   0.217521
    12  H    0.000003  -0.000015  -0.007359   0.008105   0.217521   0.359739
 Mulliken charges:
               1
     1  C    0.058378
     2  H    0.158382
     3  O   -0.617385
     4  H    0.395270
     5  C   -0.450677
     6  H    0.173078
     7  H    0.136687
     8  H    0.170841
     9  C    0.592224
    10  O   -0.472121
    11  O   -0.557826
    12  H    0.413150
 Sum of Mulliken charges =  -0.00000
 Mulliken charges with hydrogens summed into heavy atoms:
               1
     1  C    0.216759
     3  O   -0.222115
     5  C    0.029929
     9  C    0.592224
    10  O   -0.472121
    11  O   -0.144677
 Electronic spatial extent (au):  <R**2>=            574.5749
 Charge=             -0.0000 electrons
 Dipole moment (field-independent basis, Debye):
    X=              1.3355    Y=             -0.7675    Z=              1.1407  Tot=              1.9168
 Quadrupole moment (field-independent basis, Debye-Ang):
   XX=            -26.0542   YY=            -40.2904   ZZ=            -34.4121
   XY=              0.9214   XZ=              1.7554   YZ=             -0.6249
 Traceless Quadrupole moment (field-independent basis, Debye-Ang):
   XX=              7.5314   YY=             -6.7048   ZZ=             -0.8266
   XY=              0.9214   XZ=              1.7554   YZ=             -0.6249
 Octapole moment (field-independent basis, Debye-Ang**2):
  XXX=            -15.9590  YYY=             -8.0239  ZZZ=             -0.5553  XYY=              8.6849
  XXY=            -15.5068  XXZ=             -0.8179  XZZ=             -2.4727  YZZ=             -0.7167
  YYZ=              1.8402  XYZ=             -2.7434
 Hexadecapole moment (field-independent basis, Debye-Ang**3):
 XXXX=           -298.1798 YYYY=           -249.2041 ZZZZ=            -50.8699 XXXY=             -6.7858
 XXXZ=              8.4475 YYYX=            -11.6803 YYYZ=              0.8981 ZZZX=              0.1199
 ZZZY=             -1.0500 XXYY=            -97.4340 XXZZ=            -72.8311 YYZZ=            -50.4676
 XXYZ=              0.9226 YYXZ=              1.8312 ZZXY=             -1.6604
 N-N= 2.463716047668D+02 E-N=-1.298277526004D+03  KE= 3.403949662628D+02
 Unable to Open any file for archive entry.
 1\1\GINC-CCC391\SP\RB3LYP TD-FC\6-31G(d)\C3H6O3\ROOT\21-Feb-2025\0\\# 
 td=(nstat=16) b3lyp/6-31g(d)\\lactic_acid | No.14\\0,1\C,0,-0.666753,-
 0.129532,-0.376313\H,0,-0.716857,-0.239219,-1.47316\O,0,-0.981596,-1.3
 96816,0.261836\H,0,-1.867604,-1.693824,-0.027255\C,0,-1.607553,0.98494
 9,0.079407\H,0,-1.314596,1.944646,-0.353744\H,0,-2.635024,0.760486,-0.
 22853\H,0,-1.578273,1.074654,1.168866\C,0,0.779608,0.201184,-0.051947\
 O,0,1.205969,1.347499,0.122793\O,0,1.596019,-0.896527,-0.030116\H,0,2.
 517409,-0.619601,0.170837\\Version=ES64L-G16RevC.02\State=1-A\HF=-343.
 5940328\RMSD=3.154e-09\PG=C01 [X(C3H6O3)]\\@
 The archive entry for this job was punched.


 THERE'S A SUCKER BORN EVERY MINUTE

              -- PHINEAS TAYLOR (P.T.) BARNUM
 Job cpu time:       0 days  0 hours  2 minutes 48.3 seconds.
 Elapsed time:       0 days  0 hours  0 minutes 29.3 seconds.
 File lengths (MBytes):  RWF=    178 Int=      0 D2E=      0 Chk=      8 Scr=      1
 Normal termination of Gaussian 16 at Fri Feb 21 14:05:21 2025.
