 Entering Gaussian System, Link 0=/apl/gaussian/16c02/g16/._.g16
 Initial command:
 /apl/gaussian/16c02/g16/l1.exe "/lwork/users/ux8/8286863.ccpbs1/gaussian/Gau-1906880.inp" -scrdir="/lwork/users/ux8/8286863.ccpbs1/gaussian/"
 Default CPUs for threads: 24,25,26,27,28,29,30,31
 Default is to use a total of   8 processors:
                                8 via shared-memory
                                1 via Linda
 Entering Link 1 = /apl/gaussian/16c02/g16/l1.exe PID=   1906881.
  
 Copyright (c) 1988-2021, Gaussian, Inc.  All Rights Reserved.
  
 This is part of the Gaussian(R) 16 program.  It is based on
 the Gaussian(R) 09 system (copyright 2009, Gaussian, Inc.),
 the Gaussian(R) 03 system (copyright 2003, Gaussian, Inc.),
 the Gaussian(R) 98 system (copyright 1998, Gaussian, Inc.),
 the Gaussian(R) 94 system (copyright 1995, Gaussian, Inc.),
 the Gaussian 92(TM) system (copyright 1992, Gaussian, Inc.),
 the Gaussian 90(TM) system (copyright 1990, Gaussian, Inc.),
 the Gaussian 88(TM) system (copyright 1988, Gaussian, Inc.),
 the Gaussian 86(TM) system (copyright 1986, Carnegie Mellon
 University), and the Gaussian 82(TM) system (copyright 1983,
 Carnegie Mellon University). Gaussian is a federally registered
 trademark of Gaussian, Inc.
  
 This software contains proprietary and confidential information,
 including trade secrets, belonging to Gaussian, Inc.
  
 This software is provided under written license and may be
 used, copied, transmitted, or stored only in accord with that
 written license.
  
 The following legend is applicable only to US Government
 contracts under FAR:
  
                    RESTRICTED RIGHTS LEGEND
  
 Use, reproduction and disclosure by the US Government is
 subject to restrictions as set forth in subparagraphs (a)
 and (c) of the Commercial Computer Software - Restricted
 Rights clause in FAR 52.227-19.
  
 Gaussian, Inc.
 340 Quinnipiac St., Bldg. 40, Wallingford CT 06492
  
  
 ---------------------------------------------------------------
 Warning -- This program may not be used in any manner that
 competes with the business of Gaussian, Inc. or will provide
 assistance to any competitor of Gaussian, Inc.  The licensee
 of this program is prohibited from giving any competitor of
 Gaussian, Inc. access to this program.  By using this program,
 the user acknowledges that Gaussian, Inc. is engaged in the
 business of creating and licensing software in the field of
 computational chemistry and represents and warrants to the
 licensee that it is not a competitor of Gaussian, Inc. and that
 it will not use this program in any manner prohibited above.
 ---------------------------------------------------------------
  

 Cite this work as:
 Gaussian 16, Revision C.02,
 M. J. Frisch, G. W. Trucks, H. B. Schlegel, G. E. Scuseria, 
 M. A. Robb, J. R. Cheeseman, G. Scalmani, V. Barone, 
 G. A. Petersson, H. Nakatsuji, X. Li, M. Caricato, A. V. Marenich, 
 J. Bloino, B. G. Janesko, R. Gomperts, B. Mennucci, H. P. Hratchian, 
 J. V. Ortiz, A. F. Izmaylov, J. L. Sonnenberg, D. Williams-Young, 
 F. Ding, F. Lipparini, F. Egidi, J. Goings, B. Peng, A. Petrone, 
 T. Henderson, D. Ranasinghe, V. G. Zakrzewski, J. Gao, N. Rega, 
 G. Zheng, W. Liang, M. Hada, M. Ehara, K. Toyota, R. Fukuda, 
 J. Hasegawa, M. Ishida, T. Nakajima, Y. Honda, O. Kitao, H. Nakai, 
 T. Vreven, K. Throssell, J. A. Montgomery, Jr., J. E. Peralta, 
 F. Ogliaro, M. J. Bearpark, J. J. Heyd, E. N. Brothers, K. N. Kudin, 
 V. N. Staroverov, T. A. Keith, R. Kobayashi, J. Normand, 
 K. Raghavachari, A. P. Rendell, J. C. Burant, S. S. Iyengar, 
 J. Tomasi, M. Cossi, J. M. Millam, M. Klene, C. Adamo, R. Cammi, 
 J. W. Ochterski, R. L. Martin, K. Morokuma, O. Farkas, 
 J. B. Foresman, and D. J. Fox, Gaussian, Inc., Wallingford CT, 2019.
 
 ******************************************
 Gaussian 16:  ES64L-G16RevC.02  7-Dec-2021
                21-Feb-2025 
 ******************************************
 %chk=lactic_acid.006.tddft.chk
 %mem=9600MB
 SetSPE:  set environment variable "OMP_PROC_BIND" = "true"
 SetSPE:  set environment variable "OMP_PLACES" = "{24},{25},{26},{27},{28},{29},{30},{31}"
 ------------------------------
 # td=(nstat=16) b3lyp/6-31g(d)
 ------------------------------
 1/38=1,172=1/1;
 2/12=2,17=6,18=5,40=1/2;
 3/5=1,6=6,7=1,11=9,25=1,30=1,74=-5/1,2,3,8;
 4//1;
 5/5=2,38=5/2;
 8/6=1,10=2,108=16/1;
 9/41=16,42=1,70=2/14;
 6/7=2,8=2,9=2,10=2/1;
 99/5=1,9=1/99;
 ------------------
 lactic_acid | No.6
 ------------------
 Symbolic Z-matrix:
 Charge =  0 Multiplicity = 1
 C                    -0.66152   0.18133  -0.42006 
 H                    -0.73047   0.68791  -1.39126 
 O                    -1.20885  -1.15935  -0.49987 
 H                    -2.18097  -1.11084  -0.59925 
 C                    -1.36057   1.0232    0.65907 
 H                    -0.91146   2.01917   0.73211 
 H                    -2.42037   1.15007   0.40707 
 H                    -1.28434   0.52262   1.62845 
 C                     0.8194    0.06511  -0.12324 
 O                     1.679     0.79099  -0.6313 
 O                     1.11259  -0.87964   0.82411 
 H                     2.08182  -0.90288   0.98476 
 
                          Input orientation:                          
 ---------------------------------------------------------------------
 Center     Atomic      Atomic             Coordinates (Angstroms)
 Number     Number       Type             X           Y           Z
 ---------------------------------------------------------------------
      1          6           0       -0.661523    0.181332   -0.420057
      2          1           0       -0.730470    0.687909   -1.391255
      3          8           0       -1.208853   -1.159351   -0.499868
      4          1           0       -2.180966   -1.110836   -0.599252
      5          6           0       -1.360569    1.023204    0.659070
      6          1           0       -0.911459    2.019174    0.732112
      7          1           0       -2.420371    1.150069    0.407074
      8          1           0       -1.284338    0.522618    1.628451
      9          6           0        0.819401    0.065113   -0.123244
     10          8           0        1.679000    0.790993   -0.631303
     11          8           0        1.112593   -0.879636    0.824108
     12          1           0        2.081824   -0.902876    0.984758
 ---------------------------------------------------------------------
                    Distance matrix (angstroms):
                    1          2          3          4          5
     1  C    0.000000
     2  H    1.097542   0.000000
     3  O    1.450300   2.106132   0.000000
     4  H    2.002627   2.442681   0.978384   0.000000
     5  C    1.536857   2.171009   2.475823   2.609703   0.000000
     6  H    2.183489   2.512710   3.421877   3.630584   1.094985
     7  H    2.171668   2.510646   2.761112   2.486302   1.096712
     8  H    2.168124   3.074527   2.713754   2.904268   1.093662
     9  C    1.514840   2.097100   2.398952   3.257552   2.506436
    10  O    2.427830   2.528576   3.487236   4.303175   3.310282
    11  O    2.412693   3.280535   2.687055   3.595405   3.124831
    12  H    3.267256   4.010615   3.619178   4.552331   3.958021
                    6          7          8          9         10
     6  H    0.000000
     7  H    1.771386   0.000000
     8  H    1.783856   1.782141   0.000000
     9  C    2.746974   3.457526   2.775511   0.000000
    10  O    3.174556   4.244055   3.736293   1.234478   0.000000
    11  O    3.536714   4.095785   2.891118   1.369667   2.286928
    12  H    4.190698   4.981773   3.711795   1.938655   2.375524
                   11         12
    11  O    0.000000
    12  H    0.982729   0.000000
 Stoichiometry    C3H6O3
 Framework group  C1[X(C3H6O3)]
 Deg. of freedom    30
 Full point group                 C1      NOp   1
 Largest Abelian subgroup         C1      NOp   1
 Largest concise Abelian subgroup C1      NOp   1
                         Standard orientation:                         
 ---------------------------------------------------------------------
 Center     Atomic      Atomic             Coordinates (Angstroms)
 Number     Number       Type             X           Y           Z
 ---------------------------------------------------------------------
      1          6           0       -0.661523    0.181332   -0.420057
      2          1           0       -0.730470    0.687909   -1.391255
      3          8           0       -1.208853   -1.159351   -0.499868
      4          1           0       -2.180966   -1.110836   -0.599252
      5          6           0       -1.360569    1.023204    0.659070
      6          1           0       -0.911459    2.019174    0.732112
      7          1           0       -2.420371    1.150069    0.407074
      8          1           0       -1.284338    0.522618    1.628451
      9          6           0        0.819401    0.065113   -0.123244
     10          8           0        1.679000    0.790993   -0.631303
     11          8           0        1.112593   -0.879636    0.824108
     12          1           0        2.081824   -0.902876    0.984758
 ---------------------------------------------------------------------
 Rotational constants (GHZ):           5.0489186           2.8515099           2.4444339
 Standard basis: 6-31G(d) (6D, 7F)
 There are   102 symmetry adapted cartesian basis functions of A   symmetry.
 There are   102 symmetry adapted basis functions of A   symmetry.
   102 basis functions,   192 primitive gaussians,   102 cartesian basis functions
    24 alpha electrons       24 beta electrons
       nuclear repulsion energy       246.4041269844 Hartrees.
 NAtoms=   12 NActive=   12 NUniq=   12 SFac= 1.00D+00 NAtFMM=   60 NAOKFM=F Big=F
 Integral buffers will be    131072 words long.
 Regular integral format.
 Two-electron integral symmetry is turned on.
 One-electron integrals computed using PRISM.
 NBasis=   102 RedAO= T EigKep=  3.31D-03  NBF=   102
 NBsUse=   102 1.00D-06 EigRej= -1.00D+00 NBFU=   102
 ExpMin= 1.61D-01 ExpMax= 5.48D+03 ExpMxC= 8.25D+02 IAcc=3 IRadAn=         5 AccDes= 0.00D+00
 Harris functional with IExCor=  402 and IRadAn=       5 diagonalized for initial guess.
 HarFok:  IExCor=  402 AccDes= 0.00D+00 IRadAn=         5 IDoV= 1 UseB2=F ITyADJ=14
 ICtDFT=  3500011 ScaDFX=  1.000000  1.000000  1.000000  1.000000
 FoFCou: FMM=F IPFlag=           0 FMFlag=      100000 FMFlg1=           0
         NFxFlg=           0 DoJE=T BraDBF=F KetDBF=T FulRan=T
         wScrn=  0.000000 ICntrl=       500 IOpCl=  0 I1Cent=   200000004 NGrid=           0
         NMat0=    1 NMatS0=      1 NMatT0=    0 NMatD0=    1 NMtDS0=    0 NMtDT0=    0
 Petite list used in FoFCou.
 Keep R1 ints in memory in canonical form, NReq=21214305.
 Requested convergence on RMS density matrix=1.00D-08 within 128 cycles.
 Requested convergence on MAX density matrix=1.00D-06.
 Requested convergence on             energy=1.00D-06.
 No special actions if energy rises.
 Integral accuracy reduced to 1.0D-05 until final iterations.
 Initial convergence to 1.0D-05 achieved.  Increase integral accuracy.
 SCF Done:  E(RB3LYP) =  -343.593931878     A.U. after   14 cycles
            NFock= 14  Conv=0.27D-08     -V/T= 2.0094
 DoSCS=F DFT=T ScalE2(SS,OS)=  1.000000  1.000000
 ExpMin= 1.61D-01 ExpMax= 5.48D+03 ExpMxC= 8.25D+02 IAcc=3 IRadAn=         5 AccDes= 0.00D+00
 HarFok:  IExCor=  205 AccDes= 0.00D+00 IRadAn=         5 IDoV=-2 UseB2=F ITyADJ=14
 ICtDFT= 12500011 ScaDFX=  1.000000  1.000000  1.000000  1.000000
 Range of M.O.s used for correlation:     7   102
 NBasis=   102 NAE=    24 NBE=    24 NFC=     6 NFV=     0
 NROrb=     96 NOA=    18 NOB=    18 NVA=    78 NVB=    78
 Keep R1, R2, and R3 ints in memory in canonical form, NReq=75112043.
 Orbital symmetries:
       Occupied  (A) (A) (A) (A) (A) (A) (A) (A) (A) (A) (A) (A)
                 (A) (A) (A) (A) (A) (A) (A) (A) (A) (A) (A) (A)
       Virtual   (A) (A) (A) (A) (A) (A) (A) (A) (A) (A) (A) (A)
                 (A) (A) (A) (A) (A) (A) (A) (A) (A) (A) (A) (A)
                 (A) (A) (A) (A) (A) (A) (A) (A) (A) (A) (A) (A)
                 (A) (A) (A) (A) (A) (A) (A) (A) (A) (A) (A) (A)
                 (A) (A) (A) (A) (A) (A) (A) (A) (A) (A) (A) (A)
                 (A) (A) (A) (A) (A) (A) (A) (A) (A) (A) (A) (A)
                 (A) (A) (A) (A) (A) (A)
    64 initial guesses have been made.
 Convergence on wavefunction:    0.001000000000000
 Iteration     1 Dimension    64 NMult     0 NNew     64
 CISAX will form    64 AO SS matrices at one time.
 New state      3 was old state      4
 New state      4 was old state      5
 New state      5 was old state      6
 New state      6 was old state      7
 New state      7 was old state     10
 New state     10 was old state     11
 New state     11 was old state     12
 New state     12 was old state     14
 New state     13 was old state     15
 New state     14 was old state     13
 New state     15 was old state     16
 New state     16 was old state     18
 Iteration     2 Dimension    96 NMult    64 NNew     32
 Iteration     3 Dimension   128 NMult    96 NNew     32
 Iteration     4 Dimension   158 NMult   128 NNew     30
 Iteration     5 Dimension   162 NMult   158 NNew      4
 ***********************************************************************
 Excited states from <AA,BB:AA,BB> singles matrix:
 ***********************************************************************
 
 Ground to excited state transition densities written to RWF  633
 Ground to excited state transition electric dipole moments (Au):
       state          X           Y           Z        Dip. S.      Osc.
         1         0.0565     -0.0799     -0.0658      0.0139      0.0018
         2         0.1872     -0.0844      0.0173      0.0425      0.0066
         3        -0.2267     -0.1512      0.1207      0.0888      0.0168
         4         0.1504     -0.0503     -0.0969      0.0345      0.0066
         5         0.0920      0.0116     -0.0472      0.0108      0.0021
         6         0.3107      0.4737     -0.3170      0.4214      0.0873
         7         0.2655     -0.1893      0.0612      0.1101      0.0234
         8        -0.1716      0.1882     -0.3269      0.1717      0.0367
         9         0.1780     -0.1976      0.2437      0.1301      0.0280
        10        -0.0105     -0.1547      0.1038      0.0348      0.0076
        11         0.1881     -0.1249      0.0142      0.0512      0.0118
        12         0.0261      0.0040     -0.0893      0.0087      0.0020
        13         0.0512     -0.1338     -0.0324      0.0216      0.0052
        14         0.5288     -0.2988     -0.0870      0.3765      0.0910
        15         0.3264      0.0138     -0.0297      0.1076      0.0264
        16         0.2273     -0.0089     -0.0334      0.0529      0.0131
 Ground to excited state transition velocity dipole moments (Au):
       state          X           Y           Z        Dip. S.      Osc.
         1        -0.0140      0.0184      0.0171      0.0008      0.0028
         2        -0.0405      0.0259     -0.0191      0.0027      0.0076
         3         0.0559      0.0399     -0.0154      0.0050      0.0116
         4        -0.0434      0.0194      0.0721      0.0075      0.0173
         5        -0.0265     -0.0181      0.0203      0.0014      0.0032
         6        -0.1024     -0.1364      0.0939      0.0379      0.0813
         7        -0.0859      0.0688     -0.0066      0.0122      0.0255
         8         0.0548     -0.0498      0.0972      0.0149      0.0310
         9        -0.0569      0.0606     -0.1040      0.0177      0.0366
        10         0.0004      0.0708     -0.0098      0.0051      0.0104
        11        -0.0610      0.0339      0.0054      0.0049      0.0095
        12        -0.0121      0.0222      0.0353      0.0019      0.0036
        13        -0.0327      0.0721      0.0172      0.0066      0.0122
        14        -0.1930      0.1084      0.0267      0.0497      0.0914
        15        -0.1155      0.0042      0.0307      0.0143      0.0259
        16        -0.0826      0.0012     -0.0020      0.0068      0.0123
 Ground to excited state transition magnetic dipole moments (Au):
       state          X           Y           Z
         1         0.6503      0.4601     -0.3206
         2         0.0331     -0.1714      0.1642
         3        -0.0277      0.0041     -0.2682
         4        -0.3720      0.6131      0.0392
         5        -0.1664      0.1585      0.0132
         6         0.0176     -0.3507     -0.3663
         7        -0.6687      0.6811     -0.5625
         8        -0.3614     -0.1522     -0.4915
         9         0.1135      0.2584      0.2084
        10        -0.2316     -0.1349      0.4041
        11        -0.1225      0.1540      0.0074
        12        -0.0827     -0.1859     -0.3085
        13        -0.0812      0.3104     -0.9752
        14         0.2583     -0.1519     -0.0969
        15         0.1065      0.0055      0.2294
        16         0.3525      0.3216      0.0376
 Ground to excited state transition velocity quadrupole moments (Au):
       state          XX          YY          ZZ          XY          XZ          YZ
         1         0.0252      0.0332     -0.0307     -0.0765     -0.0280      0.0129
         2        -0.0363      0.0109      0.1186     -0.1132      0.0549      0.0638
         3         0.4479     -0.0110     -0.0746      0.1992     -0.1576     -0.0866
         4        -0.1434      0.0724     -0.0446     -0.1181     -0.2165     -0.2537
         5         0.0674      0.0865      0.0093     -0.0007     -0.1227      0.1024
         6         0.2163      0.0767      0.0226     -0.2791      0.4855      0.0291
         7         0.1965     -0.1719      0.0733     -0.0458     -0.2223      0.0156
         8        -0.0665     -0.0686      0.2280     -0.5174      0.3194     -0.0855
         9         0.0320     -0.0238      0.0423      0.1717     -0.0971      0.0969
        10        -0.0636     -0.1628      0.1781      0.3431      0.0225      0.0425
        11        -0.1832      0.0838      0.0784      0.0214     -0.1859      0.0967
        12         0.1909     -0.1946      0.1206     -0.0118      0.2561     -0.0257
        13         0.5942     -0.1610     -0.1714      0.0575      0.0590      0.0343
        14         0.3968      0.0964     -0.0744     -0.3519     -0.1017      0.1918
        15         0.1116      0.0870     -0.2331     -0.1634     -0.0246      0.1140
        16        -0.1034      0.1085      0.1592      0.0075      0.0539      0.0026
 <0|del|b> * <b|rxdel|0> + <0|del|b> * <b|delr+rdel|0>
 Rotatory Strengths (R) in cgs (10**-40 erg-esu-cm/Gauss)
       state          XX          YY          ZZ    R(velocity)    E-M Angle
         1         3.9404    -23.8946     -1.7128     -7.2223      104.30
         2       -10.3514    -13.9568     -2.6876     -8.9986      135.96
         3         9.3777      1.0403     -3.5402      2.2926       81.65
         4        12.7812     47.4394     15.7895     25.3367       60.18
         5        -5.7703      2.3546      7.7071      1.4305       78.11
         6        60.8804    -14.7476    -19.6038      8.8430       83.22
         7        73.5015     66.0662    100.3270     79.9649       27.84
         8       -82.1842    -24.1974    -25.8261    -44.0692      141.35
         9       -19.6937    -17.2786      9.6661     -9.1021      105.49
        10       -19.9804     -0.7360     -8.7356     -9.8173      113.14
        11        11.9570      1.5344     12.5788      8.6901       22.49
        12       -21.1452     -9.1784      2.2462     -9.3592      150.96
        13         2.3206    -15.9217     29.8898      5.4296       84.28
        14       -17.0138    -78.0643    -39.3253    -44.8011      168.92
        15         2.0682    -12.8419      0.7536     -3.3400       99.94
        16         0.2237    -27.9658    -27.0660    -18.2694      136.73
 1/2[<0|r|b>*<b|rxdel|0> + (<0|rxdel|b>*<b|r|0>)*]
 Rotatory Strengths (R) in cgs (10**-40 erg-esu-cm/Gauss)
       state          XX          YY          ZZ     R(length)
         1       -25.9839     25.9934    -14.9183     -4.9696
         2        -4.3798    -10.2319     -2.0074     -5.5397
         3        -4.4457      0.4382     22.9003      6.2976
         4        39.5670     21.8255      2.6852     21.3592
         5        10.8301     -1.3032      0.4400      3.3223
         6        -3.8629    117.4598    -82.1189     10.4927
         7       125.5574     91.1867     24.3473     80.3638
         8       -43.8465     20.2590   -113.6135    -45.7337
         9       -14.2892     36.1023    -35.9099     -4.6989
        10        -1.7199    -14.7612    -29.6609    -15.3807
        11        16.2945     13.5981     -0.0745      9.9393
        12         1.5245      0.5248    -19.4887     -5.8131
        13         2.9417     29.3684    -22.3764      3.3112
        14       -96.5856    -32.1008     -5.9571    -44.8812
        15       -24.5776     -0.0542      4.8217     -6.6034
        16       -56.6582      2.0199      0.8866    -17.9172
  1/2[<0|del|b>*<b|r|0> + (<0|r|b>*<b|del|0>)*] (Au)
       state          X           Y           Z        Dip. S.   Osc.(frdel)
         1        -0.0008     -0.0015     -0.0011      0.0034      0.0023
         2        -0.0076     -0.0022     -0.0003      0.0101      0.0067
         3        -0.0127     -0.0060     -0.0019      0.0206      0.0137
         4        -0.0065     -0.0010     -0.0070      0.0145      0.0097
         5        -0.0024     -0.0002     -0.0010      0.0036      0.0024
         6        -0.0318     -0.0646     -0.0298      0.1262      0.0841
         7        -0.0228     -0.0130     -0.0004      0.0362      0.0242
         8        -0.0094     -0.0094     -0.0318      0.0505      0.0337
         9        -0.0101     -0.0120     -0.0254      0.0474      0.0316
        10        -0.0000     -0.0109     -0.0010      0.0120      0.0080
        11        -0.0115     -0.0042      0.0001      0.0156      0.0104
        12        -0.0003      0.0001     -0.0032      0.0034      0.0023
        13        -0.0017     -0.0097     -0.0006      0.0119      0.0079
        14        -0.1020     -0.0324     -0.0023      0.1368      0.0912
        15        -0.0377      0.0001     -0.0009      0.0385      0.0257
        16        -0.0188     -0.0000      0.0001      0.0187      0.0125

 Excitation energies and oscillator strengths:
 
 Excited State   1:      Singlet-A      5.4161 eV  228.92 nm  f=0.0018  <S**2>=0.000
      23 -> 25        -0.18761
      24 -> 25         0.67775
 This state for optimization and/or second-order correction.
 Total Energy, E(TD-HF/TD-DFT) =  -343.394894366    
 Copying the excited state density for this state as the 1-particle RhoCI density.
 
 Excited State   2:      Singlet-A      6.3549 eV  195.10 nm  f=0.0066  <S**2>=0.000
      23 -> 25         0.67907
      24 -> 25         0.18748
 
 Excited State   3:      Singlet-A      7.7158 eV  160.69 nm  f=0.0168  <S**2>=0.000
      22 -> 25         0.43441
      23 -> 27        -0.12356
      24 -> 26         0.51132
      24 -> 27         0.14025
 
 Excited State   4:      Singlet-A      7.8049 eV  158.86 nm  f=0.0066  <S**2>=0.000
      22 -> 25        -0.16450
      23 -> 26         0.62179
      23 -> 27        -0.20302
      24 -> 27        -0.16776
 
 Excited State   5:      Singlet-A      8.0722 eV  153.59 nm  f=0.0021  <S**2>=0.000
      20 -> 25         0.11654
      21 -> 25         0.68976
 
 Excited State   6:      Singlet-A      8.4530 eV  146.68 nm  f=0.0873  <S**2>=0.000
      22 -> 25        -0.39220
      23 -> 26        -0.20372
      24 -> 26         0.46039
      24 -> 27        -0.23434
 
 Excited State   7:      Singlet-A      8.6649 eV  143.09 nm  f=0.0234  <S**2>=0.000
      18 -> 25        -0.16672
      20 -> 25         0.58940
      24 -> 27        -0.29272
 
 Excited State   8:      Singlet-A      8.7293 eV  142.03 nm  f=0.0367  <S**2>=0.000
      18 -> 25        -0.10982
      20 -> 25         0.27317
      22 -> 25        -0.24758
      23 -> 26         0.11818
      23 -> 27         0.16019
      24 -> 27         0.52427
 
 Excited State   9:      Singlet-A      8.7903 eV  141.05 nm  f=0.0280  <S**2>=0.000
      22 -> 25         0.13706
      22 -> 26        -0.20333
      23 -> 26         0.20132
      23 -> 27         0.60012
      24 -> 27        -0.14567
 
 Excited State  10:      Singlet-A      8.8937 eV  139.41 nm  f=0.0076  <S**2>=0.000
      22 -> 26         0.57483
      22 -> 27         0.32399
      23 -> 27         0.17616
 
 Excited State  11:      Singlet-A      9.4025 eV  131.86 nm  f=0.0118  <S**2>=0.000
      19 -> 25         0.69163
 
 Excited State  12:      Singlet-A      9.6232 eV  128.84 nm  f=0.0020  <S**2>=0.000
      21 -> 26         0.18606
      22 -> 26        -0.31911
      22 -> 27         0.59022
 
 Excited State  13:      Singlet-A      9.7958 eV  126.57 nm  f=0.0052  <S**2>=0.000
      21 -> 26         0.62301
      21 -> 27        -0.16628
      22 -> 27        -0.16546
      24 -> 28         0.13361
 
 Excited State  14:      Singlet-A      9.8632 eV  125.70 nm  f=0.0910  <S**2>=0.000
      17 -> 25        -0.17951
      18 -> 25         0.50870
      20 -> 25         0.15880
      21 -> 26         0.16588
      24 -> 28        -0.32460
 
 Excited State  15:      Singlet-A     10.0247 eV  123.68 nm  f=0.0264  <S**2>=0.000
      17 -> 25        -0.15351
      18 -> 25         0.24347
      23 -> 28         0.51420
      23 -> 30         0.13595
      24 -> 28         0.30971
 
 Excited State  16:      Singlet-A     10.1134 eV  122.59 nm  f=0.0131  <S**2>=0.000
      17 -> 25        -0.21171
      18 -> 25         0.12240
      23 -> 28        -0.39261
      23 -> 30        -0.12916
      24 -> 28         0.49855
 SavETr:  write IOETrn=   770 NScale= 10 NData=  16 NLR=1 NState=   16 LETran=     298.

 **********************************************************************

            Population analysis using the SCF Density.

 **********************************************************************

 Orbital symmetries:
       Occupied  (A) (A) (A) (A) (A) (A) (A) (A) (A) (A) (A) (A)
                 (A) (A) (A) (A) (A) (A) (A) (A) (A) (A) (A) (A)
       Virtual   (A) (A) (A) (A) (A) (A) (A) (A) (A) (A) (A) (A)
                 (A) (A) (A) (A) (A) (A) (A) (A) (A) (A) (A) (A)
                 (A) (A) (A) (A) (A) (A) (A) (A) (A) (A) (A) (A)
                 (A) (A) (A) (A) (A) (A) (A) (A) (A) (A) (A) (A)
                 (A) (A) (A) (A) (A) (A) (A) (A) (A) (A) (A) (A)
                 (A) (A) (A) (A) (A) (A) (A) (A) (A) (A) (A) (A)
                 (A) (A) (A) (A) (A) (A)
 The electronic state is 1-A.
 Alpha  occ. eigenvalues --  -19.19669 -19.15489 -19.14151 -10.32523 -10.26093
 Alpha  occ. eigenvalues --  -10.19680  -1.09378  -1.01790  -1.00561  -0.77802
 Alpha  occ. eigenvalues --   -0.68012  -0.60150  -0.51703  -0.48798  -0.47251
 Alpha  occ. eigenvalues --   -0.45878  -0.42568  -0.40663  -0.39190  -0.37855
 Alpha  occ. eigenvalues --   -0.34590  -0.31395  -0.28080  -0.27322
 Alpha virt. eigenvalues --   -0.00557   0.05640   0.07865   0.12893   0.14295
 Alpha virt. eigenvalues --    0.15022   0.17290   0.18924   0.20496   0.24771
 Alpha virt. eigenvalues --    0.31087   0.35965   0.50655   0.53131   0.55386
 Alpha virt. eigenvalues --    0.57497   0.59523   0.62828   0.64532   0.68702
 Alpha virt. eigenvalues --    0.74669   0.76999   0.78766   0.80202   0.84838
 Alpha virt. eigenvalues --    0.87236   0.87778   0.90141   0.93452   0.95733
 Alpha virt. eigenvalues --    0.95925   1.00719   1.02779   1.04989   1.06881
 Alpha virt. eigenvalues --    1.09096   1.15731   1.28572   1.34518   1.38902
 Alpha virt. eigenvalues --    1.41844   1.48934   1.51901   1.63558   1.69251
 Alpha virt. eigenvalues --    1.72618   1.74860   1.76686   1.78561   1.82112
 Alpha virt. eigenvalues --    1.83916   1.85459   1.91205   1.94040   2.00116
 Alpha virt. eigenvalues --    2.04330   2.09770   2.12306   2.21693   2.24927
 Alpha virt. eigenvalues --    2.31984   2.35305   2.44810   2.48352   2.51032
 Alpha virt. eigenvalues --    2.60816   2.64652   2.70220   2.82753   2.84596
 Alpha virt. eigenvalues --    2.96243   3.05879   3.71175   3.84039   4.10642
 Alpha virt. eigenvalues --    4.17774   4.34414   4.58171
          Condensed to atoms (all electrons):
               1          2          3          4          5          6
     1  C    4.926965   0.376021   0.214964  -0.016674   0.329481  -0.022904
     2  H    0.376021   0.603350  -0.035102  -0.002790  -0.049966   0.001970
     3  O    0.214964  -0.035102   8.284598   0.225854  -0.039624   0.003380
     4  H   -0.016674  -0.002790   0.225854   0.395354  -0.005505  -0.000084
     5  C    0.329481  -0.049966  -0.039624  -0.005505   5.190187   0.346289
     6  H   -0.022904   0.001970   0.003380  -0.000084   0.346289   0.551239
     7  H   -0.028011  -0.005572  -0.002437   0.004693   0.368329  -0.027141
     8  H   -0.029362   0.005530   0.002161  -0.000431   0.368633  -0.023212
     9  C    0.307456  -0.058458  -0.036458   0.005470  -0.025682  -0.000839
    10  O   -0.066872   0.003942   0.000953  -0.000099  -0.000585   0.001575
    11  O   -0.088711   0.003436   0.004259  -0.000044  -0.001023   0.000125
    12  H    0.009343  -0.000249  -0.000290   0.000030  -0.000344  -0.000032
               7          8          9         10         11         12
     1  C   -0.028011  -0.029362   0.307456  -0.066872  -0.088711   0.009343
     2  H   -0.005572   0.005530  -0.058458   0.003942   0.003436  -0.000249
     3  O   -0.002437   0.002161  -0.036458   0.000953   0.004259  -0.000290
     4  H    0.004693  -0.000431   0.005470  -0.000099  -0.000044   0.000030
     5  C    0.368329   0.368633  -0.025682  -0.000585  -0.001023  -0.000344
     6  H   -0.027141  -0.023212  -0.000839   0.001575   0.000125  -0.000032
     7  H    0.565215  -0.029274   0.004480  -0.000061  -0.000040   0.000012
     8  H   -0.029274   0.532584  -0.009895   0.000016   0.004364  -0.000187
     9  C    0.004480  -0.009895   4.415783   0.552946   0.271112  -0.005932
    10  O   -0.000061   0.000016   0.552946   8.053348  -0.081814   0.008264
    11  O   -0.000040   0.004364   0.271112  -0.081814   8.229710   0.217106
    12  H    0.000012  -0.000187  -0.005932   0.008264   0.217106   0.358694
 Mulliken charges:
               1
     1  C    0.088304
     2  H    0.157887
     3  O   -0.622258
     4  H    0.394228
     5  C   -0.480191
     6  H    0.169635
     7  H    0.149808
     8  H    0.179075
     9  C    0.580017
    10  O   -0.471613
    11  O   -0.558480
    12  H    0.413587
 Sum of Mulliken charges =  -0.00000
 Mulliken charges with hydrogens summed into heavy atoms:
               1
     1  C    0.246192
     3  O   -0.228030
     5  C    0.018327
     9  C    0.580017
    10  O   -0.471613
    11  O   -0.144894
 Electronic spatial extent (au):  <R**2>=            566.5910
 Charge=             -0.0000 electrons
 Dipole moment (field-independent basis, Debye):
    X=             -1.9656    Y=              0.3028    Z=              0.9920  Tot=              2.2225
 Quadrupole moment (field-independent basis, Debye-Ang):
   XX=            -28.5435   YY=            -37.9512   ZZ=            -35.0916
   XY=             -4.1861   XZ=              4.8467   YZ=              0.8292
 Traceless Quadrupole moment (field-independent basis, Debye-Ang):
   XX=              5.3186   YY=             -4.0891   ZZ=             -1.2295
   XY=             -4.1861   XZ=              4.8467   YZ=              0.8292
 Octapole moment (field-independent basis, Debye-Ang**2):
  XXX=             -4.9903  YYY=             -2.3314  ZZZ=              0.2728  XYY=              0.6845
  XXY=            -16.5929  XXZ=              5.8485  XZZ=              1.9584  YZZ=             -2.2424
  YYZ=              1.5171  XYZ=             -0.3888
 Hexadecapole moment (field-independent basis, Debye-Ang**3):
 XXXX=           -307.3291 YYYY=           -188.2330 ZZZZ=           -117.4076 XXXY=             -2.0957
 XXXZ=             36.8196 YYYX=              3.1369 YYYZ=             -1.7153 ZZZX=              8.2011
 ZZZY=             -4.3989 XXYY=            -85.0086 XXZZ=            -74.4465 YYZZ=            -52.4703
 XXYZ=             -0.4902 YYXZ=              5.9942 ZZXY=             -1.3688
 N-N= 2.464041269844D+02 E-N=-1.298282586616D+03  KE= 3.404024189244D+02
 Unable to Open any file for archive entry.
 1\1\GINC-CCC255\SP\RB3LYP TD-FC\6-31G(d)\C3H6O3\ROOT\21-Feb-2025\0\\# 
 td=(nstat=16) b3lyp/6-31g(d)\\lactic_acid | No.6\\0,1\C,0,-0.661523,0.
 181332,-0.420057\H,0,-0.73047,0.687909,-1.391255\O,0,-1.208853,-1.1593
 51,-0.499868\H,0,-2.180966,-1.110836,-0.599252\C,0,-1.360569,1.023204,
 0.65907\H,0,-0.911459,2.019174,0.732112\H,0,-2.420371,1.150069,0.40707
 4\H,0,-1.284338,0.522618,1.628451\C,0,0.819401,0.065113,-0.123244\O,0,
 1.679,0.790993,-0.631303\O,0,1.112593,-0.879636,0.824108\H,0,2.081824,
 -0.902876,0.984758\\Version=ES64L-G16RevC.02\State=1-A\HF=-343.5939319
 \RMSD=2.736e-09\PG=C01 [X(C3H6O3)]\\@
 The archive entry for this job was punched.


 TOWERING GENIUS DISDAINS A BEATEN PATH.  IT SEEKS 
 REGIONS HITHERTO UNEXPLORED.

                                -- ABRAHAM LINCOLN
 Job cpu time:       0 days  0 hours  3 minutes 52.7 seconds.
 Elapsed time:       0 days  0 hours  0 minutes 33.7 seconds.
 File lengths (MBytes):  RWF=    178 Int=      0 D2E=      0 Chk=      8 Scr=      1
 Normal termination of Gaussian 16 at Fri Feb 21 14:05:13 2025.
