 Entering Gaussian System, Link 0=/apl/gaussian/16c02/g16/._.g16
 Initial command:
 /apl/gaussian/16c02/g16/l1.exe "/lwork/users/ux8/8286865.ccpbs1/gaussian/Gau-1907123.inp" -scrdir="/lwork/users/ux8/8286865.ccpbs1/gaussian/"
 Default CPUs for threads: 104,105,106,107,108,109,110,111
 Default is to use a total of   8 processors:
                                8 via shared-memory
                                1 via Linda
 Entering Link 1 = /apl/gaussian/16c02/g16/l1.exe PID=   1907131.
  
 Copyright (c) 1988-2021, Gaussian, Inc.  All Rights Reserved.
  
 This is part of the Gaussian(R) 16 program.  It is based on
 the Gaussian(R) 09 system (copyright 2009, Gaussian, Inc.),
 the Gaussian(R) 03 system (copyright 2003, Gaussian, Inc.),
 the Gaussian(R) 98 system (copyright 1998, Gaussian, Inc.),
 the Gaussian(R) 94 system (copyright 1995, Gaussian, Inc.),
 the Gaussian 92(TM) system (copyright 1992, Gaussian, Inc.),
 the Gaussian 90(TM) system (copyright 1990, Gaussian, Inc.),
 the Gaussian 88(TM) system (copyright 1988, Gaussian, Inc.),
 the Gaussian 86(TM) system (copyright 1986, Carnegie Mellon
 University), and the Gaussian 82(TM) system (copyright 1983,
 Carnegie Mellon University). Gaussian is a federally registered
 trademark of Gaussian, Inc.
  
 This software contains proprietary and confidential information,
 including trade secrets, belonging to Gaussian, Inc.
  
 This software is provided under written license and may be
 used, copied, transmitted, or stored only in accord with that
 written license.
  
 The following legend is applicable only to US Government
 contracts under FAR:
  
                    RESTRICTED RIGHTS LEGEND
  
 Use, reproduction and disclosure by the US Government is
 subject to restrictions as set forth in subparagraphs (a)
 and (c) of the Commercial Computer Software - Restricted
 Rights clause in FAR 52.227-19.
  
 Gaussian, Inc.
 340 Quinnipiac St., Bldg. 40, Wallingford CT 06492
  
  
 ---------------------------------------------------------------
 Warning -- This program may not be used in any manner that
 competes with the business of Gaussian, Inc. or will provide
 assistance to any competitor of Gaussian, Inc.  The licensee
 of this program is prohibited from giving any competitor of
 Gaussian, Inc. access to this program.  By using this program,
 the user acknowledges that Gaussian, Inc. is engaged in the
 business of creating and licensing software in the field of
 computational chemistry and represents and warrants to the
 licensee that it is not a competitor of Gaussian, Inc. and that
 it will not use this program in any manner prohibited above.
 ---------------------------------------------------------------
  

 Cite this work as:
 Gaussian 16, Revision C.02,
 M. J. Frisch, G. W. Trucks, H. B. Schlegel, G. E. Scuseria, 
 M. A. Robb, J. R. Cheeseman, G. Scalmani, V. Barone, 
 G. A. Petersson, H. Nakatsuji, X. Li, M. Caricato, A. V. Marenich, 
 J. Bloino, B. G. Janesko, R. Gomperts, B. Mennucci, H. P. Hratchian, 
 J. V. Ortiz, A. F. Izmaylov, J. L. Sonnenberg, D. Williams-Young, 
 F. Ding, F. Lipparini, F. Egidi, J. Goings, B. Peng, A. Petrone, 
 T. Henderson, D. Ranasinghe, V. G. Zakrzewski, J. Gao, N. Rega, 
 G. Zheng, W. Liang, M. Hada, M. Ehara, K. Toyota, R. Fukuda, 
 J. Hasegawa, M. Ishida, T. Nakajima, Y. Honda, O. Kitao, H. Nakai, 
 T. Vreven, K. Throssell, J. A. Montgomery, Jr., J. E. Peralta, 
 F. Ogliaro, M. J. Bearpark, J. J. Heyd, E. N. Brothers, K. N. Kudin, 
 V. N. Staroverov, T. A. Keith, R. Kobayashi, J. Normand, 
 K. Raghavachari, A. P. Rendell, J. C. Burant, S. S. Iyengar, 
 J. Tomasi, M. Cossi, J. M. Millam, M. Klene, C. Adamo, R. Cammi, 
 J. W. Ochterski, R. L. Martin, K. Morokuma, O. Farkas, 
 J. B. Foresman, and D. J. Fox, Gaussian, Inc., Wallingford CT, 2019.
 
 ******************************************
 Gaussian 16:  ES64L-G16RevC.02  7-Dec-2021
                21-Feb-2025 
 ******************************************
 %chk=lactic_acid.008.tddft.chk
 %mem=9600MB
 SetSPE:  set environment variable "OMP_PROC_BIND" = "true"
 SetSPE:  set environment variable "OMP_PLACES" = "{104},{105},{106},{107},{108},{109},{110},{111}"
 ------------------------------
 # td=(nstat=16) b3lyp/6-31g(d)
 ------------------------------
 1/38=1,172=1/1;
 2/12=2,17=6,18=5,40=1/2;
 3/5=1,6=6,7=1,11=9,25=1,30=1,74=-5/1,2,3,8;
 4//1;
 5/5=2,38=5/2;
 8/6=1,10=2,108=16/1;
 9/41=16,42=1,70=2/14;
 6/7=2,8=2,9=2,10=2/1;
 99/5=1,9=1/99;
 ------------------
 lactic_acid | No.8
 ------------------
 Symbolic Z-matrix:
 Charge =  0 Multiplicity = 1
 C                    -0.67366   0.12219  -0.40801 
 H                    -0.76592   0.53092  -1.42417 
 O                    -1.20873  -1.22     -0.34536 
 H                    -2.17971  -1.19019  -0.4609 
 C                    -1.37086   1.06948   0.58411 
 H                    -0.92169   2.06642   0.54779 
 H                    -2.43312   1.16364   0.32924 
 H                    -1.28757   0.67333   1.6007 
 C                     0.81309   0.08057  -0.12041 
 O                     1.58081   0.98805  -0.45933 
 O                     1.22567  -1.00881   0.59479 
 H                     2.1945   -0.95148   0.7525 
 
                          Input orientation:                          
 ---------------------------------------------------------------------
 Center     Atomic      Atomic             Coordinates (Angstroms)
 Number     Number       Type             X           Y           Z
 ---------------------------------------------------------------------
      1          6           0       -0.673659    0.122192   -0.408014
      2          1           0       -0.765920    0.530923   -1.424167
      3          8           0       -1.208728   -1.220000   -0.345364
      4          1           0       -2.179705   -1.190194   -0.460902
      5          6           0       -1.370856    1.069482    0.584109
      6          1           0       -0.921688    2.066421    0.547789
      7          1           0       -2.433124    1.163642    0.329236
      8          1           0       -1.287572    0.673333    1.600704
      9          6           0        0.813093    0.080571   -0.120414
     10          8           0        1.580809    0.988047   -0.459327
     11          8           0        1.225674   -1.008812    0.594785
     12          1           0        2.194505   -0.951482    0.752501
 ---------------------------------------------------------------------
                    Distance matrix (angstroms):
                    1          2          3          4          5
     1  C    0.000000
     2  H    1.099154   0.000000
     3  O    1.446272   2.103717   0.000000
     4  H    1.998331   2.426708   0.978281   0.000000
     5  C    1.538750   2.165448   2.476274   2.617713   0.000000
     6  H    2.180620   2.504122   3.417701   3.633952   1.094056
     7  H    2.173447   2.500865   2.763328   2.495813   1.096467
     8  H    2.171542   3.072824   2.716267   2.918707   1.094228
     9  C    1.514885   2.096633   2.414508   3.269192   2.498786
    10  O    2.415567   2.578181   3.559491   4.345826   3.131727
    11  O    2.427394   3.226980   2.618166   3.569871   3.325866
    12  H    3.275047   3.962263   3.586001   4.545662   4.101762
                    6          7          8          9         10
     6  H    0.000000
     7  H    1.774039   0.000000
     8  H    1.784151   1.780259   0.000000
     9  C    2.720213   3.451544   2.779642   0.000000
    10  O    2.905110   4.094426   3.545473   1.236027   0.000000
    11  O    3.751057   4.263435   3.187145   1.366926   2.285764
    12  H    4.342845   5.105669   3.935014   1.932722   2.367894
                   11         12
    11  O    0.000000
    12  H    0.983257   0.000000
 Stoichiometry    C3H6O3
 Framework group  C1[X(C3H6O3)]
 Deg. of freedom    30
 Full point group                 C1      NOp   1
 Largest Abelian subgroup         C1      NOp   1
 Largest concise Abelian subgroup C1      NOp   1
                         Standard orientation:                         
 ---------------------------------------------------------------------
 Center     Atomic      Atomic             Coordinates (Angstroms)
 Number     Number       Type             X           Y           Z
 ---------------------------------------------------------------------
      1          6           0       -0.673659    0.122192   -0.408014
      2          1           0       -0.765920    0.530923   -1.424167
      3          8           0       -1.208728   -1.220000   -0.345364
      4          1           0       -2.179705   -1.190195   -0.460902
      5          6           0       -1.370856    1.069482    0.584109
      6          1           0       -0.921689    2.066421    0.547789
      7          1           0       -2.433124    1.163641    0.329236
      8          1           0       -1.287572    0.673333    1.600704
      9          6           0        0.813093    0.080571   -0.120414
     10          8           0        1.580809    0.988048   -0.459327
     11          8           0        1.225674   -1.008811    0.594785
     12          1           0        2.194505   -0.951481    0.752501
 ---------------------------------------------------------------------
 Rotational constants (GHZ):           5.0090191           3.0599939           2.2957822
 Standard basis: 6-31G(d) (6D, 7F)
 There are   102 symmetry adapted cartesian basis functions of A   symmetry.
 There are   102 symmetry adapted basis functions of A   symmetry.
   102 basis functions,   192 primitive gaussians,   102 cartesian basis functions
    24 alpha electrons       24 beta electrons
       nuclear repulsion energy       246.4289720471 Hartrees.
 NAtoms=   12 NActive=   12 NUniq=   12 SFac= 1.00D+00 NAtFMM=   60 NAOKFM=F Big=F
 Integral buffers will be    131072 words long.
 Regular integral format.
 Two-electron integral symmetry is turned on.
 One-electron integrals computed using PRISM.
 NBasis=   102 RedAO= T EigKep=  3.12D-03  NBF=   102
 NBsUse=   102 1.00D-06 EigRej= -1.00D+00 NBFU=   102
 ExpMin= 1.61D-01 ExpMax= 5.48D+03 ExpMxC= 8.25D+02 IAcc=3 IRadAn=         5 AccDes= 0.00D+00
 Harris functional with IExCor=  402 and IRadAn=       5 diagonalized for initial guess.
 HarFok:  IExCor=  402 AccDes= 0.00D+00 IRadAn=         5 IDoV= 1 UseB2=F ITyADJ=14
 ICtDFT=  3500011 ScaDFX=  1.000000  1.000000  1.000000  1.000000
 FoFCou: FMM=F IPFlag=           0 FMFlag=      100000 FMFlg1=           0
         NFxFlg=           0 DoJE=T BraDBF=F KetDBF=T FulRan=T
         wScrn=  0.000000 ICntrl=       500 IOpCl=  0 I1Cent=   200000004 NGrid=           0
         NMat0=    1 NMatS0=      1 NMatT0=    0 NMatD0=    1 NMtDS0=    0 NMtDT0=    0
 Petite list used in FoFCou.
 Keep R1 ints in memory in canonical form, NReq=21214305.
 Requested convergence on RMS density matrix=1.00D-08 within 128 cycles.
 Requested convergence on MAX density matrix=1.00D-06.
 Requested convergence on             energy=1.00D-06.
 No special actions if energy rises.
 Integral accuracy reduced to 1.0D-05 until final iterations.
 Initial convergence to 1.0D-05 achieved.  Increase integral accuracy.
 SCF Done:  E(RB3LYP) =  -343.594143570     A.U. after   14 cycles
            NFock= 14  Conv=0.28D-08     -V/T= 2.0094
 DoSCS=F DFT=T ScalE2(SS,OS)=  1.000000  1.000000
 ExpMin= 1.61D-01 ExpMax= 5.48D+03 ExpMxC= 8.25D+02 IAcc=3 IRadAn=         5 AccDes= 0.00D+00
 HarFok:  IExCor=  205 AccDes= 0.00D+00 IRadAn=         5 IDoV=-2 UseB2=F ITyADJ=14
 ICtDFT= 12500011 ScaDFX=  1.000000  1.000000  1.000000  1.000000
 Range of M.O.s used for correlation:     7   102
 NBasis=   102 NAE=    24 NBE=    24 NFC=     6 NFV=     0
 NROrb=     96 NOA=    18 NOB=    18 NVA=    78 NVB=    78
 Keep R1, R2, and R3 ints in memory in canonical form, NReq=75112043.
 Orbital symmetries:
       Occupied  (A) (A) (A) (A) (A) (A) (A) (A) (A) (A) (A) (A)
                 (A) (A) (A) (A) (A) (A) (A) (A) (A) (A) (A) (A)
       Virtual   (A) (A) (A) (A) (A) (A) (A) (A) (A) (A) (A) (A)
                 (A) (A) (A) (A) (A) (A) (A) (A) (A) (A) (A) (A)
                 (A) (A) (A) (A) (A) (A) (A) (A) (A) (A) (A) (A)
                 (A) (A) (A) (A) (A) (A) (A) (A) (A) (A) (A) (A)
                 (A) (A) (A) (A) (A) (A) (A) (A) (A) (A) (A) (A)
                 (A) (A) (A) (A) (A) (A) (A) (A) (A) (A) (A) (A)
                 (A) (A) (A) (A) (A) (A)
    64 initial guesses have been made.
 Convergence on wavefunction:    0.001000000000000
 Iteration     1 Dimension    64 NMult     0 NNew     64
 CISAX will form    64 AO SS matrices at one time.
 New state      3 was old state      5
 New state      5 was old state      6
 New state      6 was old state      7
 New state      7 was old state      8
 New state      8 was old state     10
 New state     10 was old state     11
 New state     11 was old state     12
 New state     12 was old state      3
 New state     13 was old state     14
 New state     14 was old state     16
 New state     16 was old state     13
 Iteration     2 Dimension    96 NMult    64 NNew     32
 New state      9 was old state     10
 New state     10 was old state      9
 New state     11 was old state     12
 New state     12 was old state     11
 New state     14 was old state     15
 New state     15 was old state     14
 Iteration     3 Dimension   128 NMult    96 NNew     32
 Iteration     4 Dimension   158 NMult   128 NNew     30
 Iteration     5 Dimension   160 NMult   158 NNew      2
 ***********************************************************************
 Excited states from <AA,BB:AA,BB> singles matrix:
 ***********************************************************************
 
 Ground to excited state transition densities written to RWF  633
 Ground to excited state transition electric dipole moments (Au):
       state          X           Y           Z        Dip. S.      Osc.
         1         0.0537     -0.0544     -0.0619      0.0097      0.0013
         2         0.2725     -0.0742      0.0162      0.0800      0.0127
         3        -0.0456     -0.1249      0.0114      0.0178      0.0034
         4        -0.2013     -0.0729      0.0919      0.0543      0.0103
         5         0.1146     -0.0254     -0.1033      0.0245      0.0049
         6         0.3410      0.4988     -0.2016      0.4057      0.0841
         7         0.1593     -0.1521      0.0009      0.0485      0.0103
         8         0.0375      0.0420     -0.0217      0.0036      0.0008
         9        -0.2929      0.4402     -0.3505      0.4024      0.0866
        10        -0.0227     -0.0917      0.0063      0.0090      0.0020
        11         0.3426     -0.1713      0.0071      0.1468      0.0341
        12         0.0628     -0.0248     -0.0008      0.0046      0.0011
        13         0.1021     -0.1752     -0.0342      0.0423      0.0101
        14        -0.3706      0.3095      0.0184      0.2334      0.0563
        15         0.2441      0.0014     -0.0091      0.0597      0.0145
        16         0.3823     -0.0198     -0.0244      0.1472      0.0362
 Ground to excited state transition velocity dipole moments (Au):
       state          X           Y           Z        Dip. S.      Osc.
         1        -0.0142      0.0127      0.0175      0.0007      0.0022
         2        -0.0605      0.0232     -0.0104      0.0043      0.0120
         3         0.0072      0.0394      0.0424      0.0034      0.0080
         4         0.0534      0.0115     -0.0427      0.0048      0.0113
         5        -0.0334     -0.0004      0.0393      0.0027      0.0059
         6        -0.1154     -0.1418      0.0591      0.0369      0.0792
         7        -0.0545      0.0574      0.0269      0.0070      0.0146
         8        -0.0107     -0.0156     -0.0198      0.0008      0.0016
         9         0.0906     -0.1329      0.1202      0.0403      0.0833
        10         0.0039      0.0421      0.0191      0.0022      0.0044
        11        -0.1159      0.0520      0.0074      0.0162      0.0310
        12        -0.0231      0.0221      0.0039      0.0010      0.0020
        13        -0.0493      0.0911      0.0127      0.0109      0.0204
        14         0.1386     -0.1080      0.0005      0.0309      0.0569
        15        -0.0858      0.0090      0.0231      0.0080      0.0146
        16        -0.1354      0.0105      0.0053      0.0185      0.0334
 Ground to excited state transition magnetic dipole moments (Au):
       state          X           Y           Z
         1         0.5994      0.5835     -0.2259
         2         0.0262     -0.0563      0.1629
         3        -0.3046      0.4547     -0.2317
         4         0.2079     -0.3853     -0.1737
         5        -0.1346      0.1577     -0.0015
         6        -0.0583     -0.1898     -0.4806
         7        -0.7998      0.5847     -0.4145
         8        -0.3158      0.3239     -0.3750
         9        -0.1075     -0.3420     -0.5849
        10        -0.2198     -0.1457      0.2006
        11        -0.0941      0.3356     -0.0952
        12        -0.0704     -0.2950     -0.0042
        13        -0.0363      0.1412     -1.0148
        14        -0.2676      0.2864      0.1374
        15         0.0140     -0.1469      0.1182
        16         0.3623      0.3366      0.1896
 Ground to excited state transition velocity quadrupole moments (Au):
       state          XX          YY          ZZ          XY          XZ          YZ
         1         0.0386      0.0267     -0.0390     -0.0603     -0.0189      0.0221
         2        -0.0579      0.0024      0.1507     -0.1823      0.0477      0.0300
         3         0.1879     -0.0057     -0.0395      0.0610     -0.2450     -0.2565
         4         0.3554      0.0135     -0.0368      0.2741      0.0756      0.1278
         5         0.1278      0.0691     -0.0606     -0.0283     -0.1277      0.0630
         6         0.2849      0.0376     -0.0081     -0.3183      0.3249      0.0492
         7         0.1270     -0.1328      0.0604      0.0138     -0.1629     -0.1190
         8         0.1075     -0.0343      0.0958     -0.2913      0.0636      0.0187
         9         0.0642      0.0030      0.0776     -0.6454      0.3260     -0.1209
        10        -0.1463     -0.1030      0.1903      0.1745      0.1420     -0.0392
        11        -0.1980      0.0349      0.2113     -0.0511     -0.1831      0.1204
        12         0.0789     -0.1612      0.1814      0.0624      0.2323     -0.0210
        13         0.5900     -0.2103     -0.1546      0.0315      0.0697      0.0300
        14        -0.3933     -0.0345      0.0417      0.2896      0.0587     -0.1449
        15         0.2046      0.0448     -0.2759     -0.1838     -0.0420      0.1056
        16        -0.0210      0.1425      0.1138     -0.0843      0.0040      0.0531
 <0|del|b> * <b|rxdel|0> + <0|del|b> * <b|delr+rdel|0>
 Rotatory Strengths (R) in cgs (10**-40 erg-esu-cm/Gauss)
       state          XX          YY          ZZ    R(velocity)    E-M Angle
         1         4.6474    -20.4981     -1.7414     -5.8640      102.95
         2        -3.2835    -10.3817      0.0476     -4.5392      113.67
         3        25.4793    -20.5879      9.9158      4.9357       80.18
         4       -11.9232     46.0779      0.8870     11.6806       64.44
         5        -1.5089      4.0469      7.7421      3.4267       65.84
         6        29.2714     -9.7320     -7.6852      3.9514       87.01
         7        35.6988     42.8099     68.1119     48.8736       42.70
         8        10.1137      5.3498     -2.7100      4.2512       68.99
         9       -64.8237    -14.6991      3.6669    -25.2853      104.55
        10        -5.3385     -0.5389     -0.9197     -2.2657      101.84
        11        26.2701     -3.4214     33.2628     18.7038       53.01
        12       -11.4758      1.8541     -0.2476     -3.2898      120.23
        13        -5.9249    -12.8670     22.2909      1.1663       89.06
        14       -23.8159    -55.9533    -53.0476    -44.2722      158.61
        15        -2.3866     -3.1827      5.9699      0.1335       89.30
        16         3.8876    -52.4956    -36.6836    -28.4305      128.19
 1/2[<0|r|b>*<b|rxdel|0> + (<0|rxdel|b>*<b|r|0>)*]
 Rotatory Strengths (R) in cgs (10**-40 erg-esu-cm/Gauss)
       state          XX          YY          ZZ     R(length)
         1       -22.7578     22.4462     -9.8915     -3.4010
         2        -5.0454     -2.9543     -1.8600     -3.2866
         3        -9.8165     40.1634      1.8614     10.7361
         4        29.5878    -19.8697     11.2930      7.0037
         5        10.9071      2.8313     -0.1107      4.5426
         6        14.0494     66.9355    -68.4991      4.1619
         7        90.0864     62.9043      0.2713     51.0873
         8         8.3784     -9.6172     -5.7503     -2.3297
         9       -22.2672    106.4784   -144.9667    -20.2518
        10        -3.5238     -9.4518     -0.8996     -4.6251
        11        22.8000     40.6399      0.4804     21.3068
        12         3.1273     -5.1825     -0.0024     -0.6859
        13         2.6219     17.4863    -24.5711     -1.4876
        14       -70.1348    -62.6707     -1.7836    -44.8630
        15        -2.4091      0.1405      0.7635     -0.5017
        16       -97.9420      4.7184      3.2744    -29.9831
  1/2[<0|del|b>*<b|r|0> + (<0|r|b>*<b|del|0>)*] (Au)
       state          X           Y           Z        Dip. S.   Osc.(frdel)
         1        -0.0008     -0.0007     -0.0011      0.0025      0.0017
         2        -0.0165     -0.0017     -0.0002      0.0184      0.0122
         3        -0.0003     -0.0049      0.0005      0.0048      0.0032
         4        -0.0107     -0.0008     -0.0039      0.0155      0.0103
         5        -0.0038      0.0000     -0.0041      0.0079      0.0052
         6        -0.0394     -0.0707     -0.0119      0.1220      0.0813
         7        -0.0087     -0.0087      0.0000      0.0174      0.0116
         8        -0.0004     -0.0007      0.0004      0.0006      0.0004
         9        -0.0265     -0.0585     -0.0421      0.1272      0.0848
        10        -0.0001     -0.0039      0.0001      0.0038      0.0026
        11        -0.0397     -0.0089      0.0001      0.0486      0.0324
        12        -0.0014     -0.0005     -0.0000      0.0020      0.0013
        13        -0.0050     -0.0160     -0.0004      0.0214      0.0143
        14        -0.0513     -0.0334      0.0000      0.0848      0.0565
        15        -0.0210      0.0000     -0.0002      0.0212      0.0141
        16        -0.0518     -0.0002     -0.0001      0.0521      0.0347

 Excitation energies and oscillator strengths:
 
 Excited State   1:      Singlet-A      5.4966 eV  225.57 nm  f=0.0013  <S**2>=0.000
      23 -> 25        -0.16620
      24 -> 25         0.68400
 This state for optimization and/or second-order correction.
 Total Energy, E(TD-HF/TD-DFT) =  -343.392147558    
 Copying the excited state density for this state as the 1-particle RhoCI density.
 
 Excited State   2:      Singlet-A      6.4871 eV  191.13 nm  f=0.0127  <S**2>=0.000
      23 -> 25         0.68150
      24 -> 25         0.16475
 
 Excited State   3:      Singlet-A      7.6881 eV  161.27 nm  f=0.0034  <S**2>=0.000
      22 -> 25         0.17529
      23 -> 26         0.52065
      23 -> 27        -0.20605
      24 -> 26         0.38365
 
 Excited State   4:      Singlet-A      7.7335 eV  160.32 nm  f=0.0103  <S**2>=0.000
      22 -> 25         0.39958
      23 -> 26        -0.38906
      24 -> 26         0.36616
      24 -> 27         0.20686
 
 Excited State   5:      Singlet-A      8.1847 eV  151.48 nm  f=0.0049  <S**2>=0.000
      20 -> 25         0.10213
      21 -> 25         0.69528
 
 Excited State   6:      Singlet-A      8.4593 eV  146.57 nm  f=0.0841  <S**2>=0.000
      22 -> 25        -0.37578
      23 -> 26        -0.15621
      24 -> 26         0.44482
      24 -> 27        -0.32721
 
 Excited State   7:      Singlet-A      8.6657 eV  143.07 nm  f=0.0103  <S**2>=0.000
      18 -> 25         0.15566
      20 -> 25         0.53802
      22 -> 26         0.18833
      23 -> 26        -0.10735
      23 -> 27        -0.27599
      24 -> 27        -0.19453
 
 Excited State   8:      Singlet-A      8.7123 eV  142.31 nm  f=0.0008  <S**2>=0.000
      18 -> 25         0.11199
      20 -> 25         0.39145
      22 -> 26        -0.21291
      22 -> 27        -0.10139
      23 -> 26         0.15631
      23 -> 27         0.43616
      24 -> 27         0.19707
 
 Excited State   9:      Singlet-A      8.7808 eV  141.20 nm  f=0.0866  <S**2>=0.000
      22 -> 25        -0.33965
      22 -> 26         0.13528
      23 -> 27        -0.25423
      24 -> 27         0.51236
 
 Excited State  10:      Singlet-A      8.9283 eV  138.87 nm  f=0.0020  <S**2>=0.000
      22 -> 26         0.54641
      22 -> 27         0.27515
      23 -> 27         0.32767
 
 Excited State  11:      Singlet-A      9.4890 eV  130.66 nm  f=0.0341  <S**2>=0.000
      18 -> 25         0.15136
      19 -> 25         0.67706
 
 Excited State  12:      Singlet-A      9.5877 eV  129.32 nm  f=0.0011  <S**2>=0.000
      22 -> 26        -0.30765
      22 -> 27         0.61680
 
 Excited State  13:      Singlet-A      9.7054 eV  127.75 nm  f=0.0101  <S**2>=0.000
      21 -> 26         0.65642
      21 -> 27        -0.15091
      24 -> 28         0.11517
 
 Excited State  14:      Singlet-A      9.8446 eV  125.94 nm  f=0.0563  <S**2>=0.000
      17 -> 25         0.13864
      18 -> 25         0.49404
      20 -> 25        -0.14848
      21 -> 26        -0.13696
      23 -> 28         0.19719
      23 -> 30         0.10401
      24 -> 28         0.34444
 
 Excited State  15:      Singlet-A      9.9281 eV  124.88 nm  f=0.0145  <S**2>=0.000
      18 -> 25        -0.24904
      23 -> 28         0.60955
      23 -> 30         0.14760
 
 Excited State  16:      Singlet-A     10.0412 eV  123.48 nm  f=0.0362  <S**2>=0.000
      17 -> 25        -0.25651
      18 -> 25        -0.21862
      19 -> 25         0.10455
      23 -> 28        -0.17025
      24 -> 28         0.56423
 SavETr:  write IOETrn=   770 NScale= 10 NData=  16 NLR=1 NState=   16 LETran=     298.

 **********************************************************************

            Population analysis using the SCF Density.

 **********************************************************************

 Orbital symmetries:
       Occupied  (A) (A) (A) (A) (A) (A) (A) (A) (A) (A) (A) (A)
                 (A) (A) (A) (A) (A) (A) (A) (A) (A) (A) (A) (A)
       Virtual   (A) (A) (A) (A) (A) (A) (A) (A) (A) (A) (A) (A)
                 (A) (A) (A) (A) (A) (A) (A) (A) (A) (A) (A) (A)
                 (A) (A) (A) (A) (A) (A) (A) (A) (A) (A) (A) (A)
                 (A) (A) (A) (A) (A) (A) (A) (A) (A) (A) (A) (A)
                 (A) (A) (A) (A) (A) (A) (A) (A) (A) (A) (A) (A)
                 (A) (A) (A) (A) (A) (A) (A) (A) (A) (A) (A) (A)
                 (A) (A) (A) (A) (A) (A)
 The electronic state is 1-A.
 Alpha  occ. eigenvalues --  -19.19712 -19.15438 -19.13956 -10.32535 -10.26199
 Alpha  occ. eigenvalues --  -10.19595  -1.09412  -1.01853  -1.00470  -0.77681
 Alpha  occ. eigenvalues --   -0.68065  -0.59945  -0.51774  -0.49247  -0.46767
 Alpha  occ. eigenvalues --   -0.46281  -0.42316  -0.40697  -0.38959  -0.37659
 Alpha  occ. eigenvalues --   -0.34547  -0.31396  -0.27915  -0.27354
 Alpha virt. eigenvalues --   -0.00237   0.05490   0.07911   0.12657   0.14034
 Alpha virt. eigenvalues --    0.15294   0.16953   0.18822   0.21203   0.25212
 Alpha virt. eigenvalues --    0.31061   0.36809   0.50967   0.53091   0.55729
 Alpha virt. eigenvalues --    0.57930   0.59290   0.62369   0.64925   0.68865
 Alpha virt. eigenvalues --    0.74035   0.76945   0.78739   0.80436   0.84143
 Alpha virt. eigenvalues --    0.87154   0.87913   0.90514   0.93873   0.94511
 Alpha virt. eigenvalues --    0.96470   0.99310   1.01989   1.05829   1.06597
 Alpha virt. eigenvalues --    1.07973   1.16587   1.31176   1.34286   1.38685
 Alpha virt. eigenvalues --    1.42105   1.49193   1.52761   1.63111   1.67773
 Alpha virt. eigenvalues --    1.71807   1.75084   1.76087   1.80600   1.82447
 Alpha virt. eigenvalues --    1.83329   1.88698   1.91733   1.95037   1.99179
 Alpha virt. eigenvalues --    2.05375   2.07864   2.11839   2.20059   2.25086
 Alpha virt. eigenvalues --    2.31196   2.33678   2.44268   2.48868   2.51626
 Alpha virt. eigenvalues --    2.59702   2.65990   2.68619   2.79726   2.85732
 Alpha virt. eigenvalues --    2.97316   3.07349   3.70795   3.89563   4.12347
 Alpha virt. eigenvalues --    4.15048   4.30983   4.59285
          Condensed to atoms (all electrons):
               1          2          3          4          5          6
     1  C    4.931252   0.377322   0.210505  -0.015515   0.341341  -0.023781
     2  H    0.377322   0.602525  -0.036162  -0.003015  -0.050240   0.002337
     3  O    0.210505  -0.036162   8.286727   0.225007  -0.040627   0.003457
     4  H   -0.015515  -0.003015   0.225007   0.395047  -0.004869  -0.000109
     5  C    0.341341  -0.050240  -0.040627  -0.004869   5.178960   0.345201
     6  H   -0.023781   0.002337   0.003457  -0.000109   0.345201   0.542383
     7  H   -0.029378  -0.006007  -0.002109   0.004368   0.369560  -0.026391
     8  H   -0.030287   0.005703   0.002361  -0.000447   0.368436  -0.022483
     9  C    0.301205  -0.057457  -0.033543   0.005591  -0.029788  -0.001076
    10  O   -0.069903   0.002434   0.001198  -0.000096  -0.001713   0.004185
    11  O   -0.083222   0.002773   0.003304   0.000003  -0.001188   0.000217
    12  H    0.009544  -0.000245  -0.000307   0.000024  -0.000289  -0.000029
               7          8          9         10         11         12
     1  C   -0.029378  -0.030287   0.301205  -0.069903  -0.083222   0.009544
     2  H   -0.006007   0.005703  -0.057457   0.002434   0.002773  -0.000245
     3  O   -0.002109   0.002361  -0.033543   0.001198   0.003304  -0.000307
     4  H    0.004368  -0.000447   0.005591  -0.000096   0.000003   0.000024
     5  C    0.369560   0.368436  -0.029788  -0.001713  -0.001188  -0.000289
     6  H   -0.026391  -0.022483  -0.001076   0.004185   0.000217  -0.000029
     7  H    0.566937  -0.030552   0.004847  -0.000002  -0.000071   0.000009
     8  H   -0.030552   0.541068  -0.008820  -0.000010   0.002107  -0.000111
     9  C    0.004847  -0.008820   4.424020   0.537830   0.285238  -0.006455
    10  O   -0.000002  -0.000010   0.537830   8.075002  -0.079417   0.008127
    11  O   -0.000071   0.002107   0.285238  -0.079417   8.205548   0.216772
    12  H    0.000009  -0.000111  -0.006455   0.008127   0.216772   0.359950
 Mulliken charges:
               1
     1  C    0.080917
     2  H    0.160033
     3  O   -0.619811
     4  H    0.394011
     5  C   -0.474783
     6  H    0.176090
     7  H    0.148788
     8  H    0.173036
     9  C    0.578409
    10  O   -0.477635
    11  O   -0.552066
    12  H    0.413009
 Sum of Mulliken charges =  -0.00000
 Mulliken charges with hydrogens summed into heavy atoms:
               1
     1  C    0.240950
     3  O   -0.225800
     5  C    0.023132
     9  C    0.578409
    10  O   -0.477635
    11  O   -0.139057
 Electronic spatial extent (au):  <R**2>=            568.7612
 Charge=             -0.0000 electrons
 Dipole moment (field-independent basis, Debye):
    X=             -1.8612    Y=              0.0549    Z=              0.5528  Tot=              1.9423
 Quadrupole moment (field-independent basis, Debye-Ang):
   XX=            -27.6504   YY=            -39.2610   ZZ=            -34.4893
   XY=             -4.3836   XZ=              3.8380   YZ=              1.0013
 Traceless Quadrupole moment (field-independent basis, Debye-Ang):
   XX=              6.1499   YY=             -5.4607   ZZ=             -0.6891
   XY=             -4.3836   XZ=              3.8380   YZ=              1.0013
 Octapole moment (field-independent basis, Debye-Ang**2):
  XXX=             -1.2685  YYY=             -2.6687  ZZZ=             -0.2854  XYY=             -1.1375
  XXY=            -18.0496  XXZ=              4.0933  XZZ=              2.1384  YZZ=             -2.0159
  YYZ=              1.2997  XYZ=             -0.4371
 Hexadecapole moment (field-independent basis, Debye-Ang**3):
 XXXX=           -298.0420 YYYY=           -218.7402 ZZZZ=            -89.4231 XXXY=             -3.7337
 XXXZ=             30.0890 YYYX=              2.5026 YYYZ=             -1.2130 ZZZX=              5.5298
 ZZZY=             -3.5232 XXYY=            -90.2683 XXZZ=            -72.0211 YYZZ=            -52.9977
 XXYZ=             -0.6496 YYXZ=              5.5453 ZZXY=             -0.1727
 N-N= 2.464289720471D+02 E-N=-1.298344527467D+03  KE= 3.403978597408D+02
 Unable to Open any file for archive entry.
 1\1\GINC-CCC255\SP\RB3LYP TD-FC\6-31G(d)\C3H6O3\ROOT\21-Feb-2025\0\\# 
 td=(nstat=16) b3lyp/6-31g(d)\\lactic_acid | No.8\\0,1\C,0,-0.673659,0.
 122192,-0.408014\H,0,-0.76592,0.530923,-1.424167\O,0,-1.208728,-1.22,-
 0.345364\H,0,-2.179705,-1.190194,-0.460902\C,0,-1.370856,1.069482,0.58
 4109\H,0,-0.921688,2.066421,0.547789\H,0,-2.433124,1.163642,0.329236\H
 ,0,-1.287572,0.673333,1.600704\C,0,0.813093,0.080571,-0.120414\O,0,1.5
 80809,0.988047,-0.459327\O,0,1.225674,-1.008812,0.594785\H,0,2.194505,
 -0.951482,0.752501\\Version=ES64L-G16RevC.02\State=1-A\HF=-343.5941436
 \RMSD=2.774e-09\PG=C01 [X(C3H6O3)]\\@
 The archive entry for this job was punched.


 TOWERING GENIUS DISDAINS A BEATEN PATH.  IT SEEKS 
 REGIONS HITHERTO UNEXPLORED.

                                -- ABRAHAM LINCOLN
 Job cpu time:       0 days  0 hours  3 minutes 48.7 seconds.
 Elapsed time:       0 days  0 hours  0 minutes 33.0 seconds.
 File lengths (MBytes):  RWF=    178 Int=      0 D2E=      0 Chk=      8 Scr=      1
 Normal termination of Gaussian 16 at Fri Feb 21 14:05:13 2025.
