 Entering Gaussian System, Link 0=/apl/gaussian/16c02/g16/._.g16
 Initial command:
 /apl/gaussian/16c02/g16/l1.exe "/lwork/users/ux8/8286867.ccpbs1/gaussian/Gau-549429.inp" -scrdir="/lwork/users/ux8/8286867.ccpbs1/gaussian/"
 Default CPUs for threads: 88,89,90,91,92,93,94,95
 Default is to use a total of   8 processors:
                                8 via shared-memory
                                1 via Linda
 Entering Link 1 = /apl/gaussian/16c02/g16/l1.exe PID=    549430.
  
 Copyright (c) 1988-2021, Gaussian, Inc.  All Rights Reserved.
  
 This is part of the Gaussian(R) 16 program.  It is based on
 the Gaussian(R) 09 system (copyright 2009, Gaussian, Inc.),
 the Gaussian(R) 03 system (copyright 2003, Gaussian, Inc.),
 the Gaussian(R) 98 system (copyright 1998, Gaussian, Inc.),
 the Gaussian(R) 94 system (copyright 1995, Gaussian, Inc.),
 the Gaussian 92(TM) system (copyright 1992, Gaussian, Inc.),
 the Gaussian 90(TM) system (copyright 1990, Gaussian, Inc.),
 the Gaussian 88(TM) system (copyright 1988, Gaussian, Inc.),
 the Gaussian 86(TM) system (copyright 1986, Carnegie Mellon
 University), and the Gaussian 82(TM) system (copyright 1983,
 Carnegie Mellon University). Gaussian is a federally registered
 trademark of Gaussian, Inc.
  
 This software contains proprietary and confidential information,
 including trade secrets, belonging to Gaussian, Inc.
  
 This software is provided under written license and may be
 used, copied, transmitted, or stored only in accord with that
 written license.
  
 The following legend is applicable only to US Government
 contracts under FAR:
  
                    RESTRICTED RIGHTS LEGEND
  
 Use, reproduction and disclosure by the US Government is
 subject to restrictions as set forth in subparagraphs (a)
 and (c) of the Commercial Computer Software - Restricted
 Rights clause in FAR 52.227-19.
  
 Gaussian, Inc.
 340 Quinnipiac St., Bldg. 40, Wallingford CT 06492
  
  
 ---------------------------------------------------------------
 Warning -- This program may not be used in any manner that
 competes with the business of Gaussian, Inc. or will provide
 assistance to any competitor of Gaussian, Inc.  The licensee
 of this program is prohibited from giving any competitor of
 Gaussian, Inc. access to this program.  By using this program,
 the user acknowledges that Gaussian, Inc. is engaged in the
 business of creating and licensing software in the field of
 computational chemistry and represents and warrants to the
 licensee that it is not a competitor of Gaussian, Inc. and that
 it will not use this program in any manner prohibited above.
 ---------------------------------------------------------------
  

 Cite this work as:
 Gaussian 16, Revision C.02,
 M. J. Frisch, G. W. Trucks, H. B. Schlegel, G. E. Scuseria, 
 M. A. Robb, J. R. Cheeseman, G. Scalmani, V. Barone, 
 G. A. Petersson, H. Nakatsuji, X. Li, M. Caricato, A. V. Marenich, 
 J. Bloino, B. G. Janesko, R. Gomperts, B. Mennucci, H. P. Hratchian, 
 J. V. Ortiz, A. F. Izmaylov, J. L. Sonnenberg, D. Williams-Young, 
 F. Ding, F. Lipparini, F. Egidi, J. Goings, B. Peng, A. Petrone, 
 T. Henderson, D. Ranasinghe, V. G. Zakrzewski, J. Gao, N. Rega, 
 G. Zheng, W. Liang, M. Hada, M. Ehara, K. Toyota, R. Fukuda, 
 J. Hasegawa, M. Ishida, T. Nakajima, Y. Honda, O. Kitao, H. Nakai, 
 T. Vreven, K. Throssell, J. A. Montgomery, Jr., J. E. Peralta, 
 F. Ogliaro, M. J. Bearpark, J. J. Heyd, E. N. Brothers, K. N. Kudin, 
 V. N. Staroverov, T. A. Keith, R. Kobayashi, J. Normand, 
 K. Raghavachari, A. P. Rendell, J. C. Burant, S. S. Iyengar, 
 J. Tomasi, M. Cossi, J. M. Millam, M. Klene, C. Adamo, R. Cammi, 
 J. W. Ochterski, R. L. Martin, K. Morokuma, O. Farkas, 
 J. B. Foresman, and D. J. Fox, Gaussian, Inc., Wallingford CT, 2019.
 
 ******************************************
 Gaussian 16:  ES64L-G16RevC.02  7-Dec-2021
                21-Feb-2025 
 ******************************************
 %chk=lactic_acid.010.tddft.chk
 %mem=9600MB
 SetSPE:  set environment variable "OMP_PROC_BIND" = "true"
 SetSPE:  set environment variable "OMP_PLACES" = "{88},{89},{90},{91},{92},{93},{94},{95}"
 ------------------------------
 # td=(nstat=16) b3lyp/6-31g(d)
 ------------------------------
 1/38=1,172=1/1;
 2/12=2,17=6,18=5,40=1/2;
 3/5=1,6=6,7=1,11=9,25=1,30=1,74=-5/1,2,3,8;
 4//1;
 5/5=2,38=5/2;
 8/6=1,10=2,108=16/1;
 9/41=16,42=1,70=2/14;
 6/7=2,8=2,9=2,10=2/1;
 99/5=1,9=1/99;
 -------------------
 lactic_acid | No.10
 -------------------
 Symbolic Z-matrix:
 Charge =  0 Multiplicity = 1
 C                    -0.6803    0.03815  -0.39642 
 H                    -0.78283   0.29568  -1.46243 
 O                    -1.1496   -1.30761  -0.15403 
 H                    -2.11066  -1.35286  -0.33081 
 C                    -1.44053   1.07613   0.44458 
 H                    -1.02411   2.07478   0.28824 
 H                    -2.49833   1.09196   0.15759 
 H                    -1.37034   0.82083   1.50639 
 C                     0.80468   0.11863  -0.10119 
 O                     1.45732   1.1529   -0.28642 
 O                     1.36243  -1.02624   0.39155 
 H                     2.3219   -0.88013   0.5505 
 
                          Input orientation:                          
 ---------------------------------------------------------------------
 Center     Atomic      Atomic             Coordinates (Angstroms)
 Number     Number       Type             X           Y           Z
 ---------------------------------------------------------------------
      1          6           0       -0.680301    0.038150   -0.396420
      2          1           0       -0.782831    0.295680   -1.462433
      3          8           0       -1.149595   -1.307614   -0.154034
      4          1           0       -2.110660   -1.352856   -0.330806
      5          6           0       -1.440533    1.076127    0.444580
      6          1           0       -1.024105    2.074778    0.288240
      7          1           0       -2.498335    1.091958    0.157591
      8          1           0       -1.370340    0.820827    1.506394
      9          6           0        0.804681    0.118626   -0.101194
     10          8           0        1.457323    1.152897   -0.286424
     11          8           0        1.362434   -1.026242    0.391548
     12          1           0        2.321895   -0.880129    0.550500
 ---------------------------------------------------------------------
                    Distance matrix (angstroms):
                    1          2          3          4          5
     1  C    0.000000
     2  H    1.101462   0.000000
     3  O    1.445707   2.101660   0.000000
     4  H    1.996279   2.400288   0.978234   0.000000
     5  C    1.537085   2.162954   2.474915   2.636333   0.000000
     6  H    2.175963   2.507640   3.413492   3.648629   1.093233
     7  H    2.173174   2.490279   2.770227   2.523081   1.096156
     8  H    2.170124   3.071625   2.708507   2.940795   1.094328
     9  C    1.516181   2.098693   2.419948   3.273713   2.501132
    10  O    2.413337   2.671349   3.587152   4.360192   2.989620
    11  O    2.434459   3.128400   2.585947   3.562422   3.504196
    12  H    3.279188   3.882493   3.567962   4.543976   4.241936
                    6          7          8          9         10
     6  H    0.000000
     7  H    1.776614   0.000000
     8  H    1.782182   1.779088   0.000000
     9  C    2.706039   3.453152   2.794305   0.000000
    10  O    2.708798   3.980966   3.364542   1.236919   0.000000
    11  O    3.914405   4.409880   3.481752   1.365506   2.284140
    12  H    4.471686   5.222846   4.176073   1.929807   2.362440
                   11         12
    11  O    0.000000
    12  H    0.983453   0.000000
 Stoichiometry    C3H6O3
 Framework group  C1[X(C3H6O3)]
 Deg. of freedom    30
 Full point group                 C1      NOp   1
 Largest Abelian subgroup         C1      NOp   1
 Largest concise Abelian subgroup C1      NOp   1
                         Standard orientation:                         
 ---------------------------------------------------------------------
 Center     Atomic      Atomic             Coordinates (Angstroms)
 Number     Number       Type             X           Y           Z
 ---------------------------------------------------------------------
      1          6           0       -0.680301    0.038150   -0.396420
      2          1           0       -0.782831    0.295680   -1.462433
      3          8           0       -1.149595   -1.307614   -0.154034
      4          1           0       -2.110660   -1.352856   -0.330806
      5          6           0       -1.440533    1.076127    0.444580
      6          1           0       -1.024105    2.074778    0.288240
      7          1           0       -2.498335    1.091958    0.157591
      8          1           0       -1.370340    0.820827    1.506394
      9          6           0        0.804681    0.118626   -0.101194
     10          8           0        1.457323    1.152897   -0.286424
     11          8           0        1.362434   -1.026242    0.391548
     12          1           0        2.321895   -0.880129    0.550500
 ---------------------------------------------------------------------
 Rotational constants (GHZ):           4.9859556           3.2296226           2.1884020
 Standard basis: 6-31G(d) (6D, 7F)
 There are   102 symmetry adapted cartesian basis functions of A   symmetry.
 There are   102 symmetry adapted basis functions of A   symmetry.
   102 basis functions,   192 primitive gaussians,   102 cartesian basis functions
    24 alpha electrons       24 beta electrons
       nuclear repulsion energy       246.4525060825 Hartrees.
 NAtoms=   12 NActive=   12 NUniq=   12 SFac= 1.00D+00 NAtFMM=   60 NAOKFM=F Big=F
 Integral buffers will be    131072 words long.
 Regular integral format.
 Two-electron integral symmetry is turned on.
 One-electron integrals computed using PRISM.
 NBasis=   102 RedAO= T EigKep=  2.92D-03  NBF=   102
 NBsUse=   102 1.00D-06 EigRej= -1.00D+00 NBFU=   102
 ExpMin= 1.61D-01 ExpMax= 5.48D+03 ExpMxC= 8.25D+02 IAcc=3 IRadAn=         5 AccDes= 0.00D+00
 Harris functional with IExCor=  402 and IRadAn=       5 diagonalized for initial guess.
 HarFok:  IExCor=  402 AccDes= 0.00D+00 IRadAn=         5 IDoV= 1 UseB2=F ITyADJ=14
 ICtDFT=  3500011 ScaDFX=  1.000000  1.000000  1.000000  1.000000
 FoFCou: FMM=F IPFlag=           0 FMFlag=      100000 FMFlg1=           0
         NFxFlg=           0 DoJE=T BraDBF=F KetDBF=T FulRan=T
         wScrn=  0.000000 ICntrl=       500 IOpCl=  0 I1Cent=   200000004 NGrid=           0
         NMat0=    1 NMatS0=      1 NMatT0=    0 NMatD0=    1 NMtDS0=    0 NMtDT0=    0
 Petite list used in FoFCou.
 Keep R1 ints in memory in canonical form, NReq=21214305.
 Requested convergence on RMS density matrix=1.00D-08 within 128 cycles.
 Requested convergence on MAX density matrix=1.00D-06.
 Requested convergence on             energy=1.00D-06.
 No special actions if energy rises.
 Integral accuracy reduced to 1.0D-05 until final iterations.
 Initial convergence to 1.0D-05 achieved.  Increase integral accuracy.
 SCF Done:  E(RB3LYP) =  -343.594175511     A.U. after   13 cycles
            NFock= 13  Conv=0.97D-08     -V/T= 2.0094
 DoSCS=F DFT=T ScalE2(SS,OS)=  1.000000  1.000000
 ExpMin= 1.61D-01 ExpMax= 5.48D+03 ExpMxC= 8.25D+02 IAcc=3 IRadAn=         5 AccDes= 0.00D+00
 HarFok:  IExCor=  205 AccDes= 0.00D+00 IRadAn=         5 IDoV=-2 UseB2=F ITyADJ=14
 ICtDFT= 12500011 ScaDFX=  1.000000  1.000000  1.000000  1.000000
 Range of M.O.s used for correlation:     7   102
 NBasis=   102 NAE=    24 NBE=    24 NFC=     6 NFV=     0
 NROrb=     96 NOA=    18 NOB=    18 NVA=    78 NVB=    78
 Keep R1, R2, and R3 ints in memory in canonical form, NReq=75112043.
 Orbital symmetries:
       Occupied  (A) (A) (A) (A) (A) (A) (A) (A) (A) (A) (A) (A)
                 (A) (A) (A) (A) (A) (A) (A) (A) (A) (A) (A) (A)
       Virtual   (A) (A) (A) (A) (A) (A) (A) (A) (A) (A) (A) (A)
                 (A) (A) (A) (A) (A) (A) (A) (A) (A) (A) (A) (A)
                 (A) (A) (A) (A) (A) (A) (A) (A) (A) (A) (A) (A)
                 (A) (A) (A) (A) (A) (A) (A) (A) (A) (A) (A) (A)
                 (A) (A) (A) (A) (A) (A) (A) (A) (A) (A) (A) (A)
                 (A) (A) (A) (A) (A) (A) (A) (A) (A) (A) (A) (A)
                 (A) (A) (A) (A) (A) (A)
    64 initial guesses have been made.
 Convergence on wavefunction:    0.001000000000000
 Iteration     1 Dimension    64 NMult     0 NNew     64
 CISAX will form    64 AO SS matrices at one time.
 New state      3 was old state      5
 New state      5 was old state      6
 New state      6 was old state      7
 New state      7 was old state      8
 New state      8 was old state     10
 New state     10 was old state      3
 New state     13 was old state     15
 New state     15 was old state     16
 New state     16 was old state     13
 Iteration     2 Dimension    96 NMult    64 NNew     32
 New state      9 was old state     10
 New state     10 was old state      9
 Iteration     3 Dimension   128 NMult    96 NNew     32
 Iteration     4 Dimension   158 NMult   128 NNew     30
 Iteration     5 Dimension   160 NMult   158 NNew      2
 ***********************************************************************
 Excited states from <AA,BB:AA,BB> singles matrix:
 ***********************************************************************
 
 Ground to excited state transition densities written to RWF  633
 Ground to excited state transition electric dipole moments (Au):
       state          X           Y           Z        Dip. S.      Osc.
         1         0.0367     -0.0223     -0.0563      0.0050      0.0007
         2         0.3175     -0.0514      0.0399      0.1050      0.0168
         3        -0.0299     -0.0835     -0.0079      0.0079      0.0015
         4        -0.1645     -0.1371      0.0333      0.0470      0.0089
         5         0.0997     -0.0916     -0.1176      0.0322      0.0065
         6         0.2660      0.5364     -0.1203      0.3730      0.0773
         7        -0.0748      0.0901      0.0501      0.0162      0.0034
         8        -0.0084      0.0475     -0.0062      0.0024      0.0005
         9        -0.3520      0.4854     -0.2329      0.4137      0.0892
        10        -0.0453      0.0559     -0.0733      0.0105      0.0023
        11         0.4263     -0.1518      0.0259      0.2054      0.0477
        12         0.0403      0.0037      0.0456      0.0037      0.0009
        13         0.0808     -0.0882      0.0093      0.0144      0.0034
        14        -0.0953      0.2253     -0.0625      0.0638      0.0153
        15        -0.3287      0.1909     -0.0098      0.1446      0.0348
        16         0.2953      0.0726     -0.0034      0.0925      0.0225
 Ground to excited state transition velocity dipole moments (Au):
       state          X           Y           Z        Dip. S.      Osc.
         1        -0.0098      0.0069      0.0172      0.0004      0.0014
         2        -0.0703      0.0192     -0.0068      0.0054      0.0149
         3         0.0001      0.0362      0.0495      0.0038      0.0089
         4         0.0437      0.0304     -0.0104      0.0029      0.0069
         5        -0.0312      0.0293      0.0426      0.0036      0.0080
         6        -0.0947     -0.1541      0.0303      0.0336      0.0721
         7         0.0312     -0.0395     -0.0524      0.0053      0.0111
         8         0.0049     -0.0192     -0.0123      0.0005      0.0011
         9         0.1096     -0.1500      0.0738      0.0400      0.0823
        10         0.0086     -0.0092      0.0475      0.0024      0.0049
        11        -0.1449      0.0506     -0.0009      0.0236      0.0450
        12        -0.0084     -0.0088     -0.0066      0.0002      0.0004
        13        -0.0382      0.0598     -0.0060      0.0051      0.0095
        14         0.0407     -0.0798      0.0407      0.0097      0.0179
        15         0.1217     -0.0727      0.0020      0.0201      0.0371
        16        -0.1026     -0.0209      0.0021      0.0110      0.0200
 Ground to excited state transition magnetic dipole moments (Au):
       state          X           Y           Z
         1         0.5176      0.6730     -0.1164
         2        -0.0141      0.1117      0.1034
         3        -0.3860      0.4726     -0.3265
         4         0.0725     -0.2143     -0.2462
         5        -0.1188      0.0804     -0.0408
         6        -0.1159     -0.1647     -0.6281
         7         0.7010     -0.3498      0.2620
         8        -0.6348      0.4862     -0.3878
         9         0.1722     -0.3313     -0.5608
        10        -0.1726     -0.2436     -0.2031
        11        -0.0361      0.3985     -0.2496
        12        -0.0841     -0.2711      0.5641
        13        -0.0316     -0.0332     -0.6662
        14        -0.1828      0.1578      0.3065
        15        -0.2837      0.4127      0.1403
        16         0.3079      0.3911      0.3362
 Ground to excited state transition velocity quadrupole moments (Au):
       state          XX          YY          ZZ          XY          XZ          YZ
         1         0.0489      0.0247     -0.0506     -0.0317     -0.0165      0.0232
         2        -0.0338     -0.0444      0.1759     -0.2253      0.0161     -0.0092
         3         0.1105     -0.0935      0.0009      0.0086     -0.2372     -0.2854
         4         0.3214      0.0712     -0.0542      0.3025      0.0010      0.0445
         5         0.1819      0.0333     -0.1354     -0.0578     -0.1087      0.0239
         6         0.3772     -0.0088     -0.0333     -0.3348      0.2144      0.0495
         7        -0.0955      0.0915     -0.0138     -0.0259      0.0704      0.2186
         8         0.1618     -0.0270      0.0419     -0.2099      0.0080     -0.0617
         9         0.2497     -0.0511      0.0224     -0.6920      0.2429     -0.0429
        10        -0.1065     -0.0707      0.1429     -0.0470      0.2440     -0.0808
        11        -0.1480     -0.0429      0.3022     -0.0600     -0.1133      0.1268
        12        -0.2468      0.0123      0.2085      0.1425      0.1617     -0.0376
        13         0.3932     -0.1914     -0.1045      0.1803      0.1392      0.0492
        14        -0.1851      0.1136     -0.2262      0.0048     -0.0982     -0.0185
        15        -0.5204      0.0073      0.2557      0.1732     -0.0411     -0.1098
        16        -0.0922      0.1252      0.1505     -0.0749     -0.0122      0.0271
 <0|del|b> * <b|rxdel|0> + <0|del|b> * <b|delr+rdel|0>
 Rotatory Strengths (R) in cgs (10**-40 erg-esu-cm/Gauss)
       state          XX          YY          ZZ    R(velocity)    E-M Angle
         1         3.9013    -11.7561     -0.4952     -2.7833       97.67
         2         3.9279     -0.8782      4.1325      2.3941       77.43
         3        12.5119    -20.8956     10.6769      0.7644       88.77
         4        -8.8726     13.4493     -6.5467     -0.6567       92.50
         5         1.5673      4.3070      4.2266      3.3670       61.32
         6        33.2009     -2.9634      9.0973     13.1116       81.78
         7         4.6984     15.1562     29.0234     16.2927       68.53
         8        -1.9916     -1.3843    -13.6264     -5.6674      111.74
         9        -6.9857     26.0815     40.2387     19.7782       78.37
        10        -7.9463    -10.2894     -0.8504     -6.3620      120.10
        11        26.5548    -13.1677     38.5804     17.3225       69.27
        12        -0.8459     -1.7664      1.3594     -0.4176       94.09
        13        -7.3011      4.3888      9.3306      2.1394       86.09
        14        -7.6374      4.0194    -11.2496     -4.9558      101.36
        15       -31.7128    -47.0107    -47.2357    -41.9864      150.61
        16        -7.6081    -32.4240    -35.5577    -25.1966      128.36
 1/2[<0|r|b>*<b|rxdel|0> + (<0|rxdel|b>*<b|r|0>)*]
 Rotatory Strengths (R) in cgs (10**-40 erg-esu-cm/Gauss)
       state          XX          YY          ZZ     R(length)
         1       -13.4259     10.6306     -4.6332     -2.4762
         2         3.1730      4.0603     -2.9182      1.4384
         3        -8.1709     27.9066     -1.8334      5.9674
         4         8.4336    -20.7757      5.8044     -2.1792
         5         8.3760      5.2072     -3.3916      3.3972
         6        21.8098     62.4762    -53.4386     10.2824
         7        37.1044     22.2930     -9.2869     16.7035
         8        -3.7853    -16.3202     -1.7133     -7.2729
         9        42.8653    113.7055    -92.3497     21.4070
        10        -5.5230      9.6363    -10.5202     -2.1356
        11        10.8708     42.7720      4.5662     19.4030
        12         2.3965      0.6997    -18.1766     -5.0268
        13         1.8050     -2.0706      4.4021      1.3788
        14       -12.3173    -25.1508     13.5489     -7.9730
        15       -65.9572    -55.7065      0.9693    -40.2315
        16       -64.2918    -20.0706      0.7998    -27.8542
  1/2[<0|del|b>*<b|r|0> + (<0|r|b>*<b|del|0>)*] (Au)
       state          X           Y           Z        Dip. S.   Osc.(frdel)
         1        -0.0004     -0.0002     -0.0010      0.0015      0.0010
         2        -0.0223     -0.0010     -0.0003      0.0236      0.0157
         3        -0.0000     -0.0030     -0.0004      0.0034      0.0023
         4        -0.0072     -0.0042     -0.0003      0.0117      0.0078
         5        -0.0031     -0.0027     -0.0050      0.0108      0.0072
         6        -0.0252     -0.0827     -0.0037      0.1115      0.0743
         7        -0.0023     -0.0036     -0.0026      0.0085      0.0057
         8        -0.0000     -0.0009      0.0001      0.0009      0.0006
         9        -0.0386     -0.0728     -0.0172      0.1286      0.0857
        10        -0.0004     -0.0005     -0.0035      0.0044      0.0029
        11        -0.0618     -0.0077     -0.0000      0.0695      0.0463
        12        -0.0003     -0.0000     -0.0003      0.0007      0.0004
        13        -0.0031     -0.0053     -0.0001      0.0084      0.0056
        14        -0.0039     -0.0180     -0.0025      0.0244      0.0163
        15        -0.0400     -0.0139     -0.0000      0.0539      0.0359
        16        -0.0303     -0.0015     -0.0000      0.0318      0.0212

 Excitation energies and oscillator strengths:
 
 Excited State   1:      Singlet-A      5.5299 eV  224.21 nm  f=0.0007  <S**2>=0.000
      24 -> 25         0.69726
 This state for optimization and/or second-order correction.
 Total Energy, E(TD-HF/TD-DFT) =  -343.390954357    
 Copying the excited state density for this state as the 1-particle RhoCI density.
 
 Excited State   2:      Singlet-A      6.5286 eV  189.91 nm  f=0.0168  <S**2>=0.000
      23 -> 25         0.69344
 
 Excited State   3:      Singlet-A      7.6787 eV  161.46 nm  f=0.0015  <S**2>=0.000
      23 -> 26         0.64088
      23 -> 27        -0.21342
      24 -> 26         0.17875
 
 Excited State   4:      Singlet-A      7.7380 eV  160.23 nm  f=0.0089  <S**2>=0.000
      22 -> 25         0.43166
      23 -> 26        -0.16228
      24 -> 26         0.49024
      24 -> 27         0.19481
 
 Excited State   5:      Singlet-A      8.2262 eV  150.72 nm  f=0.0065  <S**2>=0.000
      21 -> 25         0.69542
 
 Excited State   6:      Singlet-A      8.4633 eV  146.50 nm  f=0.0773  <S**2>=0.000
      22 -> 25        -0.37261
      24 -> 26         0.45345
      24 -> 27        -0.34762
 
 Excited State   7:      Singlet-A      8.6505 eV  143.33 nm  f=0.0034  <S**2>=0.000
      18 -> 25        -0.11032
      20 -> 25        -0.36324
      22 -> 26        -0.25990
      22 -> 27        -0.12160
      23 -> 26         0.16637
      23 -> 27         0.47360
      24 -> 27         0.11135
 
 Excited State   8:      Singlet-A      8.6856 eV  142.75 nm  f=0.0005  <S**2>=0.000
      18 -> 25         0.15471
      20 -> 25         0.55327
      22 -> 26        -0.13732
      23 -> 26         0.11009
      23 -> 27         0.28532
      24 -> 27         0.19285
 
 Excited State   9:      Singlet-A      8.8026 eV  140.85 nm  f=0.0892  <S**2>=0.000
      22 -> 25        -0.34355
      23 -> 27        -0.22764
      24 -> 27         0.52069
 
 Excited State  10:      Singlet-A      8.9745 eV  138.15 nm  f=0.0023  <S**2>=0.000
      22 -> 26         0.56247
      22 -> 27         0.26955
      23 -> 27         0.29180
 
 Excited State  11:      Singlet-A      9.4869 eV  130.69 nm  f=0.0477  <S**2>=0.000
      18 -> 25         0.10084
      19 -> 25         0.68264
 
 Excited State  12:      Singlet-A      9.6043 eV  129.09 nm  f=0.0009  <S**2>=0.000
      21 -> 26        -0.18552
      22 -> 26        -0.28533
      22 -> 27         0.59944
 
 Excited State  13:      Singlet-A      9.7193 eV  127.57 nm  f=0.0034  <S**2>=0.000
      18 -> 25         0.18737
      21 -> 26         0.55529
      21 -> 27        -0.13245
      22 -> 27         0.16477
      23 -> 28         0.22108
      24 -> 28         0.19074
 
 Excited State  14:      Singlet-A      9.7864 eV  126.69 nm  f=0.0153  <S**2>=0.000
      21 -> 26        -0.27162
      23 -> 28         0.59883
      23 -> 30         0.17761
 
 Excited State  15:      Singlet-A      9.8113 eV  126.37 nm  f=0.0348  <S**2>=0.000
      17 -> 25         0.12839
      18 -> 25         0.57726
      20 -> 25        -0.16757
      21 -> 26        -0.17490
      23 -> 28        -0.18855
      24 -> 28         0.17863
 
 Excited State  16:      Singlet-A      9.9400 eV  124.73 nm  f=0.0225  <S**2>=0.000
      17 -> 25        -0.22245
      18 -> 25        -0.17141
      21 -> 26        -0.10275
      24 -> 28         0.60679
      24 -> 29        -0.12144
 SavETr:  write IOETrn=   770 NScale= 10 NData=  16 NLR=1 NState=   16 LETran=     298.

 **********************************************************************

            Population analysis using the SCF Density.

 **********************************************************************

 Orbital symmetries:
       Occupied  (A) (A) (A) (A) (A) (A) (A) (A) (A) (A) (A) (A)
                 (A) (A) (A) (A) (A) (A) (A) (A) (A) (A) (A) (A)
       Virtual   (A) (A) (A) (A) (A) (A) (A) (A) (A) (A) (A) (A)
                 (A) (A) (A) (A) (A) (A) (A) (A) (A) (A) (A) (A)
                 (A) (A) (A) (A) (A) (A) (A) (A) (A) (A) (A) (A)
                 (A) (A) (A) (A) (A) (A) (A) (A) (A) (A) (A) (A)
                 (A) (A) (A) (A) (A) (A) (A) (A) (A) (A) (A) (A)
                 (A) (A) (A) (A) (A) (A) (A) (A) (A) (A) (A) (A)
                 (A) (A) (A) (A) (A) (A)
 The electronic state is 1-A.
 Alpha  occ. eigenvalues --  -19.19759 -19.15398 -19.13908 -10.32589 -10.26288
 Alpha  occ. eigenvalues --  -10.19272  -1.09467  -1.01845  -1.00457  -0.77513
 Alpha  occ. eigenvalues --   -0.68086  -0.59666  -0.51888  -0.49737  -0.47022
 Alpha  occ. eigenvalues --   -0.45630  -0.41989  -0.40683  -0.38747  -0.37565
 Alpha  occ. eigenvalues --   -0.34568  -0.31456  -0.27779  -0.27398
 Alpha virt. eigenvalues --   -0.00143   0.05559   0.07959   0.12444   0.13828
 Alpha virt. eigenvalues --    0.15289   0.17006   0.19040   0.22381   0.24988
 Alpha virt. eigenvalues --    0.31009   0.37189   0.51425   0.53097   0.56143
 Alpha virt. eigenvalues --    0.58439   0.59524   0.61501   0.65059   0.69424
 Alpha virt. eigenvalues --    0.73205   0.76907   0.78634   0.80725   0.83554
 Alpha virt. eigenvalues --    0.87418   0.88127   0.91251   0.92067   0.95054
 Alpha virt. eigenvalues --    0.96617   0.97854   1.00840   1.05824   1.07761
 Alpha virt. eigenvalues --    1.09445   1.15777   1.32384   1.33625   1.39725
 Alpha virt. eigenvalues --    1.43772   1.49914   1.53223   1.61067   1.67512
 Alpha virt. eigenvalues --    1.71614   1.74604   1.76424   1.78902   1.82720
 Alpha virt. eigenvalues --    1.83268   1.88148   1.93173   1.95143   2.00020
 Alpha virt. eigenvalues --    2.04976   2.08703   2.12339   2.19638   2.25577
 Alpha virt. eigenvalues --    2.30701   2.32041   2.44146   2.48373   2.51903
 Alpha virt. eigenvalues --    2.58300   2.67162   2.68370   2.78148   2.86309
 Alpha virt. eigenvalues --    2.97897   3.08283   3.70322   3.92321   4.11093
 Alpha virt. eigenvalues --    4.18384   4.29662   4.58679
          Condensed to atoms (all electrons):
               1          2          3          4          5          6
     1  C    4.940784   0.373845   0.210256  -0.015315   0.350237  -0.023748
     2  H    0.373845   0.602869  -0.035346  -0.003605  -0.051512   0.002719
     3  O    0.210256  -0.035346   8.286390   0.225096  -0.043400   0.003536
     4  H   -0.015315  -0.003605   0.225096   0.394736  -0.003899  -0.000135
     5  C    0.350237  -0.051512  -0.043400  -0.003899   5.173086   0.343437
     6  H   -0.023748   0.002719   0.003536  -0.000135   0.343437   0.536160
     7  H   -0.030491  -0.006019  -0.001586   0.003808   0.368647  -0.026147
     8  H   -0.031050   0.005641   0.002436  -0.000467   0.369731  -0.021707
     9  C    0.300326  -0.052816  -0.031727   0.005685  -0.036059  -0.001813
    10  O   -0.073761   0.000931   0.001246  -0.000092  -0.002164   0.007389
    11  O   -0.081468   0.001759   0.002240   0.000031   0.000078   0.000233
    12  H    0.009730  -0.000267  -0.000323   0.000021  -0.000243  -0.000026
               7          8          9         10         11         12
     1  C   -0.030491  -0.031050   0.300326  -0.073761  -0.081468   0.009730
     2  H   -0.006019   0.005641  -0.052816   0.000931   0.001759  -0.000267
     3  O   -0.001586   0.002436  -0.031727   0.001246   0.002240  -0.000323
     4  H    0.003808  -0.000467   0.005685  -0.000092   0.000031   0.000021
     5  C    0.368647   0.369731  -0.036059  -0.002164   0.000078  -0.000243
     6  H   -0.026147  -0.021707  -0.001813   0.007389   0.000233  -0.000026
     7  H    0.572952  -0.031199   0.005072   0.000119  -0.000061   0.000006
     8  H   -0.031199   0.544017  -0.007525   0.000139   0.000743  -0.000057
     9  C    0.005072  -0.007525   4.415768   0.530837   0.296132  -0.006919
    10  O    0.000119   0.000139   0.530837   8.085382  -0.078615   0.008006
    11  O   -0.000061   0.000743   0.296132  -0.078615   8.192660   0.216919
    12  H    0.000006  -0.000057  -0.006919   0.008006   0.216919   0.360261
 Mulliken charges:
               1
     1  C    0.070656
     2  H    0.161803
     3  O   -0.618817
     4  H    0.394136
     5  C   -0.467940
     6  H    0.180102
     7  H    0.144899
     8  H    0.169298
     9  C    0.583039
    10  O   -0.479417
    11  O   -0.550650
    12  H    0.412891
 Sum of Mulliken charges =  -0.00000
 Mulliken charges with hydrogens summed into heavy atoms:
               1
     1  C    0.232459
     3  O   -0.224682
     5  C    0.026360
     9  C    0.583039
    10  O   -0.479417
    11  O   -0.137759
 Electronic spatial extent (au):  <R**2>=            571.5546
 Charge=             -0.0000 electrons
 Dipole moment (field-independent basis, Debye):
    X=             -1.7097    Y=             -0.2196    Z=             -0.0103  Tot=              1.7238
 Quadrupole moment (field-independent basis, Debye-Ang):
   XX=            -26.7759   YY=            -40.3168   ZZ=            -34.0898
   XY=             -3.6147   XZ=              3.1112   YZ=              1.1188
 Traceless Quadrupole moment (field-independent basis, Debye-Ang):
   XX=              6.9516   YY=             -6.5893   ZZ=             -0.3623
   XY=             -3.6147   XZ=              3.1112   YZ=              1.1188
 Octapole moment (field-independent basis, Debye-Ang**2):
  XXX=              4.5561  YYY=             -3.6022  ZZZ=             -0.3607  XYY=             -3.8146
  XXY=            -18.4161  XXZ=              2.5358  XZZ=              2.2489  YZZ=             -1.7507
  YYZ=              0.5294  XYZ=             -1.0316
 Hexadecapole moment (field-independent basis, Debye-Ang**3):
 XXXX=           -294.3376 YYYY=           -241.3941 ZZZZ=            -66.8974 XXXY=             -1.3831
 XXXZ=             23.6023 YYYX=              4.2226 YYYZ=             -0.5773 ZZZX=              3.5455
 ZZZY=             -2.0103 XXYY=            -94.6918 XXZZ=            -70.6068 YYZZ=            -52.6211
 XXYZ=             -0.2146 YYXZ=              4.7901 ZZXY=              1.1183
 N-N= 2.464525060825D+02 E-N=-1.298408609920D+03  KE= 3.403932294175D+02
 Unable to Open any file for archive entry.
 1\1\GINC-CCC263\SP\RB3LYP TD-FC\6-31G(d)\C3H6O3\ROOT\21-Feb-2025\0\\# 
 td=(nstat=16) b3lyp/6-31g(d)\\lactic_acid | No.10\\0,1\C,0,-0.680301,0
 .03815,-0.39642\H,0,-0.782831,0.29568,-1.462433\O,0,-1.149595,-1.30761
 4,-0.154034\H,0,-2.11066,-1.352856,-0.330806\C,0,-1.440533,1.076127,0.
 44458\H,0,-1.024105,2.074778,0.28824\H,0,-2.498335,1.091958,0.157591\H
 ,0,-1.37034,0.820827,1.506394\C,0,0.804681,0.118626,-0.101194\O,0,1.45
 7323,1.152897,-0.286424\O,0,1.362434,-1.026242,0.391548\H,0,2.321895,-
 0.880129,0.5505\\Version=ES64L-G16RevC.02\State=1-A\HF=-343.5941755\RM
 SD=9.705e-09\PG=C01 [X(C3H6O3)]\\@
 The archive entry for this job was punched.


 SEE YOU NOW,
 YOUR BAIT OF FALSEHOOD TAKES THIS CARP OF TRUTH.
 AND THUS DO WE OF WISDOM AND OF REACH...
 BY INDIRECTIONS FIND DIRECTIONS OUT.    -- HAMLET, II, 1
 Job cpu time:       0 days  0 hours  3 minutes 20.7 seconds.
 Elapsed time:       0 days  0 hours  1 minutes 11.6 seconds.
 File lengths (MBytes):  RWF=    178 Int=      0 D2E=      0 Chk=      8 Scr=      1
 Normal termination of Gaussian 16 at Fri Feb 21 14:06:01 2025.
