 Entering Gaussian System, Link 0=/apl/gaussian/16c02/g16/._.g16
 Initial command:
 /apl/gaussian/16c02/g16/l1.exe "/lwork/users/ux8/8286862.ccpbs1/gaussian/Gau-1906995.inp" -scrdir="/lwork/users/ux8/8286862.ccpbs1/gaussian/"
 Default CPUs for threads: 16,17,18,19,20,21,22,23
 Default is to use a total of   8 processors:
                                8 via shared-memory
                                1 via Linda
 Entering Link 1 = /apl/gaussian/16c02/g16/l1.exe PID=   1906996.
  
 Copyright (c) 1988-2021, Gaussian, Inc.  All Rights Reserved.
  
 This is part of the Gaussian(R) 16 program.  It is based on
 the Gaussian(R) 09 system (copyright 2009, Gaussian, Inc.),
 the Gaussian(R) 03 system (copyright 2003, Gaussian, Inc.),
 the Gaussian(R) 98 system (copyright 1998, Gaussian, Inc.),
 the Gaussian(R) 94 system (copyright 1995, Gaussian, Inc.),
 the Gaussian 92(TM) system (copyright 1992, Gaussian, Inc.),
 the Gaussian 90(TM) system (copyright 1990, Gaussian, Inc.),
 the Gaussian 88(TM) system (copyright 1988, Gaussian, Inc.),
 the Gaussian 86(TM) system (copyright 1986, Carnegie Mellon
 University), and the Gaussian 82(TM) system (copyright 1983,
 Carnegie Mellon University). Gaussian is a federally registered
 trademark of Gaussian, Inc.
  
 This software contains proprietary and confidential information,
 including trade secrets, belonging to Gaussian, Inc.
  
 This software is provided under written license and may be
 used, copied, transmitted, or stored only in accord with that
 written license.
  
 The following legend is applicable only to US Government
 contracts under FAR:
  
                    RESTRICTED RIGHTS LEGEND
  
 Use, reproduction and disclosure by the US Government is
 subject to restrictions as set forth in subparagraphs (a)
 and (c) of the Commercial Computer Software - Restricted
 Rights clause in FAR 52.227-19.
  
 Gaussian, Inc.
 340 Quinnipiac St., Bldg. 40, Wallingford CT 06492
  
  
 ---------------------------------------------------------------
 Warning -- This program may not be used in any manner that
 competes with the business of Gaussian, Inc. or will provide
 assistance to any competitor of Gaussian, Inc.  The licensee
 of this program is prohibited from giving any competitor of
 Gaussian, Inc. access to this program.  By using this program,
 the user acknowledges that Gaussian, Inc. is engaged in the
 business of creating and licensing software in the field of
 computational chemistry and represents and warrants to the
 licensee that it is not a competitor of Gaussian, Inc. and that
 it will not use this program in any manner prohibited above.
 ---------------------------------------------------------------
  

 Cite this work as:
 Gaussian 16, Revision C.02,
 M. J. Frisch, G. W. Trucks, H. B. Schlegel, G. E. Scuseria, 
 M. A. Robb, J. R. Cheeseman, G. Scalmani, V. Barone, 
 G. A. Petersson, H. Nakatsuji, X. Li, M. Caricato, A. V. Marenich, 
 J. Bloino, B. G. Janesko, R. Gomperts, B. Mennucci, H. P. Hratchian, 
 J. V. Ortiz, A. F. Izmaylov, J. L. Sonnenberg, D. Williams-Young, 
 F. Ding, F. Lipparini, F. Egidi, J. Goings, B. Peng, A. Petrone, 
 T. Henderson, D. Ranasinghe, V. G. Zakrzewski, J. Gao, N. Rega, 
 G. Zheng, W. Liang, M. Hada, M. Ehara, K. Toyota, R. Fukuda, 
 J. Hasegawa, M. Ishida, T. Nakajima, Y. Honda, O. Kitao, H. Nakai, 
 T. Vreven, K. Throssell, J. A. Montgomery, Jr., J. E. Peralta, 
 F. Ogliaro, M. J. Bearpark, J. J. Heyd, E. N. Brothers, K. N. Kudin, 
 V. N. Staroverov, T. A. Keith, R. Kobayashi, J. Normand, 
 K. Raghavachari, A. P. Rendell, J. C. Burant, S. S. Iyengar, 
 J. Tomasi, M. Cossi, J. M. Millam, M. Klene, C. Adamo, R. Cammi, 
 J. W. Ochterski, R. L. Martin, K. Morokuma, O. Farkas, 
 J. B. Foresman, and D. J. Fox, Gaussian, Inc., Wallingford CT, 2019.
 
 ******************************************
 Gaussian 16:  ES64L-G16RevC.02  7-Dec-2021
                21-Feb-2025 
 ******************************************
 %chk=lactic_acid.005.tddft.chk
 %mem=9600MB
 SetSPE:  set environment variable "OMP_PROC_BIND" = "true"
 SetSPE:  set environment variable "OMP_PLACES" = "{16},{17},{18},{19},{20},{21},{22},{23}"
 ------------------------------
 # td=(nstat=16) b3lyp/6-31g(d)
 ------------------------------
 1/38=1,172=1/1;
 2/12=2,17=6,18=5,40=1/2;
 3/5=1,6=6,7=1,11=9,25=1,30=1,74=-5/1,2,3,8;
 4//1;
 5/5=2,38=5/2;
 8/6=1,10=2,108=16/1;
 9/41=16,42=1,70=2/14;
 6/7=2,8=2,9=2,10=2/1;
 99/5=1,9=1/99;
 ------------------
 lactic_acid | No.5
 ------------------
 Symbolic Z-matrix:
 Charge =  0 Multiplicity = 1
 C                    -0.65619   0.17105  -0.43765 
 H                    -0.71542   0.64398  -1.42579 
 O                    -1.18352  -1.18285  -0.48467 
 H                    -2.15282  -1.15198  -0.61515 
 C                    -1.38185   1.02862   0.60779 
 H                    -0.95076   2.03416   0.66206 
 H                    -2.43988   1.13275   0.33825 
 H                    -1.30959   0.55487   1.59033 
 C                     0.82186   0.06009  -0.12204 
 O                     1.7133    0.63339  -0.75329 
 O                     1.07335  -0.70327   0.98887 
 H                     2.04059  -0.75052   1.15437 
 
                          Input orientation:                          
 ---------------------------------------------------------------------
 Center     Atomic      Atomic             Coordinates (Angstroms)
 Number     Number       Type             X           Y           Z
 ---------------------------------------------------------------------
      1          6           0       -0.656194    0.171046   -0.437654
      2          1           0       -0.715416    0.643982   -1.425788
      3          8           0       -1.183523   -1.182846   -0.484667
      4          1           0       -2.152822   -1.151981   -0.615150
      5          6           0       -1.381846    1.028616    0.607785
      6          1           0       -0.950760    2.034161    0.662056
      7          1           0       -2.439884    1.132755    0.338248
      8          1           0       -1.309590    0.554867    1.590334
      9          6           0        0.821857    0.060094   -0.122038
     10          8           0        1.713298    0.633393   -0.753285
     11          8           0        1.073349   -0.703272    0.988874
     12          1           0        2.040585   -0.750520    1.154372
 ---------------------------------------------------------------------
                    Distance matrix (angstroms):
                    1          2          3          4          5
     1  C    0.000000
     2  H    1.097080   0.000000
     3  O    1.453723   2.107637   0.000000
     4  H    2.005443   2.439007   0.978529   0.000000
     5  C    1.534581   2.174280   2.474540   2.616291   0.000000
     6  H    2.183421   2.519341   3.423198   3.636992   1.095400
     7  H    2.169898   2.514858   2.760007   2.492266   1.096786
     8  H    2.164943   3.075382   2.709459   2.913508   1.093189
     9  C    1.515440   2.098547   2.387038   3.249769   2.515350
    10  O    2.434724   2.520124   3.429643   4.260695   3.404208
    11  O    2.406394   3.293230   2.737661   3.630759   3.028638
    12  H    3.264421   4.024600   3.642558   4.569140   3.895782
                    6          7          8          9         10
     6  H    0.000000
     7  H    1.770558   0.000000
     8  H    1.782910   1.783042   0.000000
     9  C    2.766571   3.464306   2.778504   0.000000
    10  O    3.326041   4.323162   3.825777   1.233617   0.000000
    11  O    3.420141   4.017103   2.760990   1.371168   2.287209
    12  H    4.116427   4.928223   3.621846   1.942065   2.379388
                   11         12
    11  O    0.000000
    12  H    0.982429   0.000000
 Stoichiometry    C3H6O3
 Framework group  C1[X(C3H6O3)]
 Deg. of freedom    30
 Full point group                 C1      NOp   1
 Largest Abelian subgroup         C1      NOp   1
 Largest concise Abelian subgroup C1      NOp   1
                         Standard orientation:                         
 ---------------------------------------------------------------------
 Center     Atomic      Atomic             Coordinates (Angstroms)
 Number     Number       Type             X           Y           Z
 ---------------------------------------------------------------------
      1          6           0       -0.656194    0.171046   -0.437654
      2          1           0       -0.715416    0.643982   -1.425788
      3          8           0       -1.183523   -1.182846   -0.484667
      4          1           0       -2.152822   -1.151981   -0.615150
      5          6           0       -1.381846    1.028616    0.607785
      6          1           0       -0.950760    2.034161    0.662056
      7          1           0       -2.439884    1.132755    0.338248
      8          1           0       -1.309590    0.554867    1.590334
      9          6           0        0.821857    0.060094   -0.122038
     10          8           0        1.713298    0.633393   -0.753285
     11          8           0        1.073349   -0.703272    0.988874
     12          1           0        2.040585   -0.750520    1.154372
 ---------------------------------------------------------------------
 Rotational constants (GHZ):           5.0666781           2.7459303           2.5313702
 Standard basis: 6-31G(d) (6D, 7F)
 There are   102 symmetry adapted cartesian basis functions of A   symmetry.
 There are   102 symmetry adapted basis functions of A   symmetry.
   102 basis functions,   192 primitive gaussians,   102 cartesian basis functions
    24 alpha electrons       24 beta electrons
       nuclear repulsion energy       246.3914668847 Hartrees.
 NAtoms=   12 NActive=   12 NUniq=   12 SFac= 1.00D+00 NAtFMM=   60 NAOKFM=F Big=F
 Integral buffers will be    131072 words long.
 Regular integral format.
 Two-electron integral symmetry is turned on.
 One-electron integrals computed using PRISM.
 NBasis=   102 RedAO= T EigKep=  3.37D-03  NBF=   102
 NBsUse=   102 1.00D-06 EigRej= -1.00D+00 NBFU=   102
 ExpMin= 1.61D-01 ExpMax= 5.48D+03 ExpMxC= 8.25D+02 IAcc=3 IRadAn=         5 AccDes= 0.00D+00
 Harris functional with IExCor=  402 and IRadAn=       5 diagonalized for initial guess.
 HarFok:  IExCor=  402 AccDes= 0.00D+00 IRadAn=         5 IDoV= 1 UseB2=F ITyADJ=14
 ICtDFT=  3500011 ScaDFX=  1.000000  1.000000  1.000000  1.000000
 FoFCou: FMM=F IPFlag=           0 FMFlag=      100000 FMFlg1=           0
         NFxFlg=           0 DoJE=T BraDBF=F KetDBF=T FulRan=T
         wScrn=  0.000000 ICntrl=       500 IOpCl=  0 I1Cent=   200000004 NGrid=           0
         NMat0=    1 NMatS0=      1 NMatT0=    0 NMatD0=    1 NMtDS0=    0 NMtDT0=    0
 Petite list used in FoFCou.
 Keep R1 ints in memory in canonical form, NReq=21214305.
 Requested convergence on RMS density matrix=1.00D-08 within 128 cycles.
 Requested convergence on MAX density matrix=1.00D-06.
 Requested convergence on             energy=1.00D-06.
 No special actions if energy rises.
 Integral accuracy reduced to 1.0D-05 until final iterations.
 Initial convergence to 1.0D-05 achieved.  Increase integral accuracy.
 SCF Done:  E(RB3LYP) =  -343.593670377     A.U. after   14 cycles
            NFock= 14  Conv=0.27D-08     -V/T= 2.0094
 DoSCS=F DFT=T ScalE2(SS,OS)=  1.000000  1.000000
 ExpMin= 1.61D-01 ExpMax= 5.48D+03 ExpMxC= 8.25D+02 IAcc=3 IRadAn=         5 AccDes= 0.00D+00
 HarFok:  IExCor=  205 AccDes= 0.00D+00 IRadAn=         5 IDoV=-2 UseB2=F ITyADJ=14
 ICtDFT= 12500011 ScaDFX=  1.000000  1.000000  1.000000  1.000000
 Range of M.O.s used for correlation:     7   102
 NBasis=   102 NAE=    24 NBE=    24 NFC=     6 NFV=     0
 NROrb=     96 NOA=    18 NOB=    18 NVA=    78 NVB=    78
 Keep R1, R2, and R3 ints in memory in canonical form, NReq=75112043.
 Orbital symmetries:
       Occupied  (A) (A) (A) (A) (A) (A) (A) (A) (A) (A) (A) (A)
                 (A) (A) (A) (A) (A) (A) (A) (A) (A) (A) (A) (A)
       Virtual   (A) (A) (A) (A) (A) (A) (A) (A) (A) (A) (A) (A)
                 (A) (A) (A) (A) (A) (A) (A) (A) (A) (A) (A) (A)
                 (A) (A) (A) (A) (A) (A) (A) (A) (A) (A) (A) (A)
                 (A) (A) (A) (A) (A) (A) (A) (A) (A) (A) (A) (A)
                 (A) (A) (A) (A) (A) (A) (A) (A) (A) (A) (A) (A)
                 (A) (A) (A) (A) (A) (A) (A) (A) (A) (A) (A) (A)
                 (A) (A) (A) (A) (A) (A)
    64 initial guesses have been made.
 Convergence on wavefunction:    0.001000000000000
 Iteration     1 Dimension    64 NMult     0 NNew     64
 CISAX will form    64 AO SS matrices at one time.
 New state      3 was old state      4
 New state      4 was old state      6
 New state      6 was old state      7
 New state      7 was old state     10
 New state     10 was old state     11
 New state     11 was old state     12
 New state     12 was old state     14
 New state     13 was old state     15
 New state     14 was old state     13
 New state     15 was old state     16
 New state     16 was old state     18
 Iteration     2 Dimension    96 NMult    64 NNew     32
 Iteration     3 Dimension   128 NMult    96 NNew     32
 Iteration     4 Dimension   158 NMult   128 NNew     30
 Iteration     5 Dimension   164 NMult   158 NNew      6
 ***********************************************************************
 Excited states from <AA,BB:AA,BB> singles matrix:
 ***********************************************************************
 
 Ground to excited state transition densities written to RWF  633
 Ground to excited state transition electric dipole moments (Au):
       state          X           Y           Z        Dip. S.      Osc.
         1         0.0532     -0.0909     -0.0585      0.0145      0.0019
         2         0.1364     -0.0770      0.0258      0.0252      0.0039
         3        -0.2617     -0.1386      0.1610      0.1136      0.0215
         4         0.1516     -0.0695     -0.1056      0.0390      0.0075
         5         0.0550      0.0264     -0.0071      0.0038      0.0007
         6         0.2620      0.4239     -0.4117      0.4178      0.0865
         7         0.2832     -0.1553      0.0542      0.1072      0.0227
         8        -0.1566      0.0616     -0.3196      0.1305      0.0278
         9         0.1896     -0.1888      0.3097      0.1674      0.0361
        10        -0.0339     -0.0955      0.0891      0.0182      0.0040
        11         0.1044     -0.0897      0.0319      0.0200      0.0046
        12        -0.0103      0.0117     -0.1262      0.0162      0.0038
        13        -0.1192     -0.0341      0.0222      0.0159      0.0038
        14         0.5706     -0.2945     -0.0983      0.4220      0.1020
        15         0.2948      0.0379     -0.0522      0.0911      0.0224
        16        -0.0762     -0.0150      0.0164      0.0063      0.0016
 Ground to excited state transition velocity dipole moments (Au):
       state          X           Y           Z        Dip. S.      Osc.
         1        -0.0119      0.0212      0.0144      0.0008      0.0027
         2        -0.0282      0.0225     -0.0252      0.0019      0.0056
         3         0.0649      0.0388     -0.0301      0.0066      0.0156
         4        -0.0460      0.0260      0.0748      0.0084      0.0194
         5        -0.0153     -0.0243      0.0072      0.0009      0.0020
         6        -0.0858     -0.1233      0.1199      0.0369      0.0793
         7        -0.0907      0.0582     -0.0077      0.0117      0.0245
         8         0.0513     -0.0065      0.0948      0.0117      0.0243
         9        -0.0620      0.0651     -0.1176      0.0219      0.0451
        10         0.0089      0.0570     -0.0034      0.0033      0.0068
        11        -0.0322      0.0225      0.0007      0.0015      0.0030
        12         0.0003      0.0215      0.0473      0.0027      0.0051
        13         0.0276      0.0331     -0.0022      0.0019      0.0034
        14        -0.2104      0.1134      0.0317      0.0581      0.1069
        15        -0.1052     -0.0066      0.0351      0.0123      0.0223
        16         0.0293      0.0110      0.0108      0.0011      0.0020
 Ground to excited state transition magnetic dipole moments (Au):
       state          X           Y           Z
         1         0.6643      0.3630     -0.3825
         2         0.0275     -0.1912      0.1665
         3         0.0035     -0.0848     -0.2658
         4        -0.3823      0.6012     -0.0188
         5        -0.1850      0.1192      0.0107
         6         0.0633     -0.5049     -0.2846
         7        -0.5868      0.5809     -0.6925
         8        -0.4033     -0.1957     -0.3856
         9         0.0745      0.2434      0.2641
        10        -0.2611     -0.1266      0.3635
        11        -0.1096      0.0642      0.0593
        12        -0.0829     -0.1513     -0.3672
        13        -0.1466      0.3080     -0.9316
        14         0.2399     -0.0304     -0.3065
        15         0.1795      0.1498      0.2361
        16        -0.3233     -0.3043      0.0392
 Ground to excited state transition velocity quadrupole moments (Au):
       state          XX          YY          ZZ          XY          XZ          YZ
         1         0.0194      0.0345     -0.0268     -0.0795     -0.0276      0.0017
         2        -0.0196      0.0164      0.0950     -0.0819      0.0534      0.0831
         3         0.4853     -0.0359     -0.0704      0.1657     -0.1819     -0.0712
         4        -0.0895      0.0695     -0.0442     -0.0975     -0.2010     -0.2536
         5         0.0396      0.1097      0.0128      0.0052     -0.1185      0.1154
         6         0.1860      0.0828      0.0496     -0.2098      0.5928      0.0222
         7         0.2234     -0.1567      0.0435     -0.1130     -0.2012      0.0677
         8        -0.1153     -0.1186      0.2694     -0.3935      0.3081     -0.0324
         9         0.0402     -0.0474      0.0665      0.2378     -0.1241      0.1216
        10         0.0003     -0.1524      0.1211      0.3187     -0.0277      0.0969
        11        -0.1547      0.1122      0.0029      0.0531     -0.1950      0.0768
        12         0.1826     -0.1879      0.1030      0.0065      0.2777     -0.0021
        13         0.4780     -0.1727     -0.1296      0.1774      0.0808      0.0140
        14         0.5344      0.1065     -0.1648     -0.3069     -0.0326      0.1771
        15         0.0569      0.1093     -0.2281     -0.0795     -0.0051      0.0829
        16         0.1140     -0.0469     -0.1994     -0.0901     -0.0532      0.0419
 <0|del|b> * <b|rxdel|0> + <0|del|b> * <b|delr+rdel|0>
 Rotatory Strengths (R) in cgs (10**-40 erg-esu-cm/Gauss)
       state          XX          YY          ZZ    R(velocity)    E-M Angle
         1         2.9790    -22.0238     -1.3878     -6.8109      103.75
         2       -11.7033    -14.3540     -2.3560     -9.4711      145.75
         3         8.4574     10.7372     -6.8607      4.1113       77.42
         4        14.8824     43.0162     19.9876     25.9621       60.83
         5        -6.7985      1.3322      5.5235      0.0191       90.00
         6        86.5230    -18.5696    -16.3605     17.1976       78.33
         7        57.5272     57.3102     90.5745     68.4707       37.50
         8       -78.0808    -23.8490    -21.8185    -41.2494      151.23
         9       -38.3520    -16.6578     11.6731    -14.4456      111.43
        10        -8.5657     -1.7451    -12.9374     -7.7494      113.63
        11         6.0975      1.0943      3.1613      3.4510       24.43
        12       -26.1479    -17.6250      2.6737    -13.6997      168.41
        13         8.9677     -1.1853      8.2293      5.3372       78.96
        14       -18.7262    -85.5385    -19.8575    -41.3741      132.55
        15         4.2874    -15.8226    -10.6503     -7.3952      108.29
        16        -3.1341     -6.4755    -13.8403     -7.8166      147.12
 1/2[<0|r|b>*<b|rxdel|0> + (<0|rxdel|b>*<b|r|0>)*]
 Rotatory Strengths (R) in cgs (10**-40 erg-esu-cm/Gauss)
       state          XX          YY          ZZ     R(length)
         1       -24.9882     23.3379    -15.8182     -5.8228
         2        -2.6541    -10.4106     -3.0387     -5.3678
         3         0.6566     -8.3124     30.2507      7.5316
         4        40.9938     29.5259     -1.4044     23.0384
         5         7.1973     -2.2265      0.0535      1.6748
         6       -11.7315    151.3409    -82.8526     18.9189
         7       117.5112     63.7789     26.5287     69.2730
         8       -44.6667      8.5189    -87.1517    -41.0998
         9        -9.9858     32.4854    -57.8380    -11.7794
        10        -6.2509     -8.5547    -22.9143    -12.5733
        11         8.0944      4.0735     -1.3385      3.6098
        12        -0.6015      1.2524    -32.7727    -10.7073
        13       -12.3519      7.4228     14.6501      3.2403
        14       -96.8062     -6.3317    -21.3112    -41.4830
        15       -37.4267     -4.0142      8.7117    -10.9097
        16       -17.4117     -3.2252     -0.4539     -7.0303
  1/2[<0|del|b>*<b|r|0> + (<0|r|b>*<b|del|0>)*] (Au)
       state          X           Y           Z        Dip. S.   Osc.(frdel)
         1        -0.0006     -0.0019     -0.0008      0.0034      0.0023
         2        -0.0038     -0.0017     -0.0006      0.0062      0.0041
         3        -0.0170     -0.0054     -0.0048      0.0272      0.0181
         4        -0.0070     -0.0018     -0.0079      0.0167      0.0111
         5        -0.0008     -0.0006     -0.0001      0.0015      0.0010
         6        -0.0225     -0.0522     -0.0494      0.1241      0.0827
         7        -0.0257     -0.0090     -0.0004      0.0351      0.0234
         8        -0.0080     -0.0004     -0.0303      0.0387      0.0258
         9        -0.0118     -0.0123     -0.0364      0.0605      0.0403
        10        -0.0003     -0.0054     -0.0003      0.0060      0.0040
        11        -0.0034     -0.0020      0.0000      0.0054      0.0036
        12        -0.0000      0.0003     -0.0060      0.0057      0.0038
        13        -0.0033     -0.0011     -0.0000      0.0045      0.0030
        14        -0.1201     -0.0334     -0.0031      0.1566      0.1044
        15        -0.0310     -0.0003     -0.0018      0.0331      0.0221
        16        -0.0022     -0.0002      0.0002      0.0022      0.0015

 Excitation energies and oscillator strengths:
 
 Excited State   1:      Singlet-A      5.3689 eV  230.93 nm  f=0.0019  <S**2>=0.000
      23 -> 25        -0.21103
      24 -> 25         0.67043
 This state for optimization and/or second-order correction.
 Total Energy, E(TD-HF/TD-DFT) =  -343.396367209    
 Copying the excited state density for this state as the 1-particle RhoCI density.
 
 Excited State   2:      Singlet-A      6.2764 eV  197.54 nm  f=0.0039  <S**2>=0.000
      23 -> 25         0.67274
      24 -> 25         0.21183
 
 Excited State   3:      Singlet-A      7.7167 eV  160.67 nm  f=0.0215  <S**2>=0.000
      22 -> 25         0.45946
      23 -> 27        -0.11304
      24 -> 26         0.48967
      24 -> 27         0.13861
 
 Excited State   4:      Singlet-A      7.8565 eV  157.81 nm  f=0.0075  <S**2>=0.000
      22 -> 25        -0.14309
      23 -> 26         0.59446
      23 -> 27        -0.22507
      24 -> 26         0.17401
      24 -> 27        -0.18228
 
 Excited State   5:      Singlet-A      8.0028 eV  154.93 nm  f=0.0007  <S**2>=0.000
      20 -> 25         0.11849
      21 -> 25         0.68587
 
 Excited State   6:      Singlet-A      8.4516 eV  146.70 nm  f=0.0865  <S**2>=0.000
      20 -> 25        -0.10851
      22 -> 25        -0.39880
      23 -> 26        -0.24348
      23 -> 27         0.11112
      24 -> 26         0.45715
      24 -> 27        -0.16306
 
 Excited State   7:      Singlet-A      8.6538 eV  143.27 nm  f=0.0227  <S**2>=0.000
      18 -> 25        -0.15815
      20 -> 25         0.57944
      23 -> 26        -0.10254
      24 -> 27        -0.31966
 
 Excited State   8:      Singlet-A      8.7043 eV  142.44 nm  f=0.0278  <S**2>=0.000
      18 -> 25        -0.10651
      20 -> 25         0.28826
      22 -> 25        -0.20059
      22 -> 26         0.13793
      23 -> 26         0.15243
      23 -> 27         0.15592
      24 -> 27         0.52060
 
 Excited State   9:      Singlet-A      8.8089 eV  140.75 nm  f=0.0361  <S**2>=0.000
      22 -> 25         0.15529
      23 -> 26         0.21344
      23 -> 27         0.61990
      24 -> 27        -0.17012
 
 Excited State  10:      Singlet-A      8.9114 eV  139.13 nm  f=0.0040  <S**2>=0.000
      22 -> 26         0.60155
      22 -> 27         0.32920
 
 Excited State  11:      Singlet-A      9.3303 eV  132.88 nm  f=0.0046  <S**2>=0.000
      19 -> 25         0.69711
 
 Excited State  12:      Singlet-A      9.6731 eV  128.17 nm  f=0.0038  <S**2>=0.000
      21 -> 26         0.20617
      22 -> 26        -0.31536
      22 -> 27         0.58261
 
 Excited State  13:      Singlet-A      9.8471 eV  125.91 nm  f=0.0038  <S**2>=0.000
      17 -> 25         0.16368
      18 -> 25        -0.22640
      21 -> 26         0.53585
      21 -> 27        -0.16247
      22 -> 27        -0.18878
      24 -> 28         0.19950
 
 Excited State  14:      Singlet-A      9.8684 eV  125.64 nm  f=0.1020  <S**2>=0.000
      17 -> 25        -0.17016
      18 -> 25         0.48897
      20 -> 25         0.14901
      21 -> 26         0.33657
      24 -> 28        -0.22367
 
 Excited State  15:      Singlet-A     10.0462 eV  123.41 nm  f=0.0224  <S**2>=0.000
      17 -> 25        -0.17239
      18 -> 25         0.22179
      23 -> 28         0.38889
      23 -> 30         0.13032
      24 -> 28         0.46264
      24 -> 30         0.10888
 
 Excited State  16:      Singlet-A     10.1650 eV  121.97 nm  f=0.0016  <S**2>=0.000
      17 -> 25         0.19186
      23 -> 28         0.48479
      23 -> 30         0.18870
      24 -> 28        -0.39582
      24 -> 29         0.10424
 SavETr:  write IOETrn=   770 NScale= 10 NData=  16 NLR=1 NState=   16 LETran=     298.

 **********************************************************************

            Population analysis using the SCF Density.

 **********************************************************************

 Orbital symmetries:
       Occupied  (A) (A) (A) (A) (A) (A) (A) (A) (A) (A) (A) (A)
                 (A) (A) (A) (A) (A) (A) (A) (A) (A) (A) (A) (A)
       Virtual   (A) (A) (A) (A) (A) (A) (A) (A) (A) (A) (A) (A)
                 (A) (A) (A) (A) (A) (A) (A) (A) (A) (A) (A) (A)
                 (A) (A) (A) (A) (A) (A) (A) (A) (A) (A) (A) (A)
                 (A) (A) (A) (A) (A) (A) (A) (A) (A) (A) (A) (A)
                 (A) (A) (A) (A) (A) (A) (A) (A) (A) (A) (A) (A)
                 (A) (A) (A) (A) (A) (A) (A) (A) (A) (A) (A) (A)
                 (A) (A) (A) (A) (A) (A)
 The electronic state is 1-A.
 Alpha  occ. eigenvalues --  -19.19686 -19.15514 -19.14264 -10.32544 -10.26047
 Alpha  occ. eigenvalues --  -10.19593  -1.09387  -1.01730  -1.00628  -0.77817
 Alpha  occ. eigenvalues --   -0.67956  -0.60238  -0.51693  -0.48656  -0.47502
 Alpha  occ. eigenvalues --   -0.45498  -0.42608  -0.40726  -0.39183  -0.37969
 Alpha  occ. eigenvalues --   -0.34613  -0.31463  -0.28152  -0.27301
 Alpha virt. eigenvalues --   -0.00762   0.05743   0.07859   0.13067   0.14407
 Alpha virt. eigenvalues --    0.14836   0.17438   0.19014   0.20589   0.24332
 Alpha virt. eigenvalues --    0.31102   0.35471   0.50629   0.53105   0.55379
 Alpha virt. eigenvalues --    0.57264   0.59783   0.62945   0.64276   0.68687
 Alpha virt. eigenvalues --    0.74820   0.76941   0.78824   0.79978   0.85174
 Alpha virt. eigenvalues --    0.87581   0.87735   0.90223   0.92821   0.95530
 Alpha virt. eigenvalues --    0.96622   1.00452   1.02847   1.04228   1.06833
 Alpha virt. eigenvalues --    1.12320   1.14486   1.28148   1.33271   1.40170
 Alpha virt. eigenvalues --    1.42385   1.47923   1.51534   1.63485   1.69680
 Alpha virt. eigenvalues --    1.72661   1.75343   1.76275   1.77338   1.81694
 Alpha virt. eigenvalues --    1.84001   1.84409   1.90034   1.93939   2.00890
 Alpha virt. eigenvalues --    2.03540   2.11082   2.13342   2.22526   2.25573
 Alpha virt. eigenvalues --    2.32159   2.35389   2.44621   2.47245   2.51024
 Alpha virt. eigenvalues --    2.61316   2.64234   2.71586   2.82631   2.85479
 Alpha virt. eigenvalues --    2.95717   3.05292   3.71046   3.81917   4.09376
 Alpha virt. eigenvalues --    4.19449   4.37158   4.57539
          Condensed to atoms (all electrons):
               1          2          3          4          5          6
     1  C    4.924314   0.374172   0.218165  -0.017294   0.323149  -0.022436
     2  H    0.374172   0.604510  -0.034000  -0.003004  -0.050841   0.001870
     3  O    0.218165  -0.034000   8.283824   0.226388  -0.040249   0.003371
     4  H   -0.017294  -0.003004   0.226388   0.395380  -0.005489  -0.000082
     5  C    0.323149  -0.050841  -0.040249  -0.005489   5.197942   0.346116
     6  H   -0.022436   0.001870   0.003371  -0.000082   0.346116   0.556560
     7  H   -0.027298  -0.005296  -0.002501   0.004712   0.366901  -0.027617
     8  H   -0.028463   0.005388   0.002093  -0.000432   0.368586  -0.023381
     9  C    0.313556  -0.057121  -0.037511   0.005495  -0.025019  -0.000932
    10  O   -0.065865   0.004185   0.000735  -0.000102   0.000207   0.000824
    11  O   -0.091468   0.003608   0.004182  -0.000068  -0.000443   0.000084
    12  H    0.009263  -0.000255  -0.000298   0.000031  -0.000362  -0.000035
               7          8          9         10         11         12
     1  C   -0.027298  -0.028463   0.313556  -0.065865  -0.091468   0.009263
     2  H   -0.005296   0.005388  -0.057121   0.004185   0.003608  -0.000255
     3  O   -0.002501   0.002093  -0.037511   0.000735   0.004182  -0.000298
     4  H    0.004712  -0.000432   0.005495  -0.000102  -0.000068   0.000031
     5  C    0.366901   0.368586  -0.025019   0.000207  -0.000443  -0.000362
     6  H   -0.027617  -0.023381  -0.000932   0.000824   0.000084  -0.000035
     7  H    0.566841  -0.028647   0.004270  -0.000069  -0.000001   0.000013
     8  H   -0.028647   0.527378  -0.010138   0.000044   0.005474  -0.000220
     9  C    0.004270  -0.010138   4.404220   0.559377   0.266476  -0.005682
    10  O   -0.000069   0.000044   0.559377   8.043706  -0.083116   0.008345
    11  O   -0.000001   0.005474   0.266476  -0.083116   8.240161   0.217366
    12  H    0.000013  -0.000220  -0.005682   0.008345   0.217366   0.357742
 Mulliken charges:
               1
     1  C    0.090205
     2  H    0.156784
     3  O   -0.624198
     4  H    0.394464
     5  C   -0.480497
     6  H    0.165658
     7  H    0.148692
     8  H    0.182317
     9  C    0.583009
    10  O   -0.468271
    11  O   -0.562255
    12  H    0.414092
 Sum of Mulliken charges =  -0.00000
 Mulliken charges with hydrogens summed into heavy atoms:
               1
     1  C    0.246989
     3  O   -0.229734
     5  C    0.016171
     9  C    0.583009
    10  O   -0.468271
    11  O   -0.148163
 Electronic spatial extent (au):  <R**2>=            566.0144
 Charge=              0.0000 electrons
 Dipole moment (field-independent basis, Debye):
    X=             -1.9966    Y=              0.4875    Z=              1.0878  Tot=              2.3254
 Quadrupole moment (field-independent basis, Debye-Ang):
   XX=            -28.9202   YY=            -37.2405   ZZ=            -35.4647
   XY=             -3.3493   XZ=              5.7321   YZ=              0.8346
 Traceless Quadrupole moment (field-independent basis, Debye-Ang):
   XX=              4.9549   YY=             -3.3654   ZZ=             -1.5896
   XY=             -3.3493   XZ=              5.7321   YZ=              0.8346
 Octapole moment (field-independent basis, Debye-Ang**2):
  XXX=             -5.6642  YYY=             -1.9729  ZZZ=              1.0755  XYY=              1.1302
  XXY=            -15.0929  XXZ=              7.4945  XZZ=              1.7956  YZZ=             -2.5080
  YYZ=              1.2078  XYZ=             -0.6403
 Hexadecapole moment (field-independent basis, Debye-Ang**3):
 XXXX=           -313.5768 YYYY=           -172.5509 ZZZZ=           -130.7619 XXXY=              2.8210
 XXXZ=             40.3737 YYYX=              5.3011 YYYZ=             -1.8394 ZZZX=             10.4029
 ZZZY=             -4.0161 XXYY=            -82.4660 XXZZ=            -75.5446 YYZZ=            -52.2341
 XXYZ=              0.2039 YYXZ=              5.5730 ZZXY=             -1.5687
 N-N= 2.463914668847D+02 E-N=-1.298254479746D+03  KE= 3.404036249298D+02
 Unable to Open any file for archive entry.
 1\1\GINC-CCC255\SP\RB3LYP TD-FC\6-31G(d)\C3H6O3\ROOT\21-Feb-2025\0\\# 
 td=(nstat=16) b3lyp/6-31g(d)\\lactic_acid | No.5\\0,1\C,0,-0.656194,0.
 171046,-0.437654\H,0,-0.715416,0.643982,-1.425788\O,0,-1.183523,-1.182
 846,-0.484667\H,0,-2.152822,-1.151981,-0.61515\C,0,-1.381846,1.028616,
 0.607785\H,0,-0.95076,2.034161,0.662056\H,0,-2.439884,1.132755,0.33824
 8\H,0,-1.30959,0.554867,1.590334\C,0,0.821857,0.060094,-0.122038\O,0,1
 .713298,0.633393,-0.753285\O,0,1.073349,-0.703272,0.988874\H,0,2.04058
 5,-0.75052,1.154372\\Version=ES64L-G16RevC.02\State=1-A\HF=-343.593670
 4\RMSD=2.702e-09\PG=C01 [X(C3H6O3)]\\@
 The archive entry for this job was punched.


 TOWERING GENIUS DISDAINS A BEATEN PATH.  IT SEEKS 
 REGIONS HITHERTO UNEXPLORED.

                                -- ABRAHAM LINCOLN
 Job cpu time:       0 days  0 hours  3 minutes 51.4 seconds.
 Elapsed time:       0 days  0 hours  0 minutes 33.4 seconds.
 File lengths (MBytes):  RWF=    178 Int=      0 D2E=      0 Chk=      8 Scr=      1
 Normal termination of Gaussian 16 at Fri Feb 21 14:05:13 2025.
