 Entering Gaussian System, Link 0=/apl/gaussian/16c02/g16/._.g16
 Initial command:
 /apl/gaussian/16c02/g16/l1.exe "/lwork/users/ux8/8279355.ccpbs1/gaussian/Gau-189531.inp" -scrdir="/lwork/users/ux8/8279355.ccpbs1/gaussian/"
 Default CPUs for threads: 88,89,90,91,92,93,94,95
 Default is to use a total of   8 processors:
                                8 via shared-memory
                                1 via Linda
 Entering Link 1 = /apl/gaussian/16c02/g16/l1.exe PID=    189532.
  
 Copyright (c) 1988-2021, Gaussian, Inc.  All Rights Reserved.
  
 This is part of the Gaussian(R) 16 program.  It is based on
 the Gaussian(R) 09 system (copyright 2009, Gaussian, Inc.),
 the Gaussian(R) 03 system (copyright 2003, Gaussian, Inc.),
 the Gaussian(R) 98 system (copyright 1998, Gaussian, Inc.),
 the Gaussian(R) 94 system (copyright 1995, Gaussian, Inc.),
 the Gaussian 92(TM) system (copyright 1992, Gaussian, Inc.),
 the Gaussian 90(TM) system (copyright 1990, Gaussian, Inc.),
 the Gaussian 88(TM) system (copyright 1988, Gaussian, Inc.),
 the Gaussian 86(TM) system (copyright 1986, Carnegie Mellon
 University), and the Gaussian 82(TM) system (copyright 1983,
 Carnegie Mellon University). Gaussian is a federally registered
 trademark of Gaussian, Inc.
  
 This software contains proprietary and confidential information,
 including trade secrets, belonging to Gaussian, Inc.
  
 This software is provided under written license and may be
 used, copied, transmitted, or stored only in accord with that
 written license.
  
 The following legend is applicable only to US Government
 contracts under FAR:
  
                    RESTRICTED RIGHTS LEGEND
  
 Use, reproduction and disclosure by the US Government is
 subject to restrictions as set forth in subparagraphs (a)
 and (c) of the Commercial Computer Software - Restricted
 Rights clause in FAR 52.227-19.
  
 Gaussian, Inc.
 340 Quinnipiac St., Bldg. 40, Wallingford CT 06492
  
  
 ---------------------------------------------------------------
 Warning -- This program may not be used in any manner that
 competes with the business of Gaussian, Inc. or will provide
 assistance to any competitor of Gaussian, Inc.  The licensee
 of this program is prohibited from giving any competitor of
 Gaussian, Inc. access to this program.  By using this program,
 the user acknowledges that Gaussian, Inc. is engaged in the
 business of creating and licensing software in the field of
 computational chemistry and represents and warrants to the
 licensee that it is not a competitor of Gaussian, Inc. and that
 it will not use this program in any manner prohibited above.
 ---------------------------------------------------------------
  

 Cite this work as:
 Gaussian 16, Revision C.02,
 M. J. Frisch, G. W. Trucks, H. B. Schlegel, G. E. Scuseria, 
 M. A. Robb, J. R. Cheeseman, G. Scalmani, V. Barone, 
 G. A. Petersson, H. Nakatsuji, X. Li, M. Caricato, A. V. Marenich, 
 J. Bloino, B. G. Janesko, R. Gomperts, B. Mennucci, H. P. Hratchian, 
 J. V. Ortiz, A. F. Izmaylov, J. L. Sonnenberg, D. Williams-Young, 
 F. Ding, F. Lipparini, F. Egidi, J. Goings, B. Peng, A. Petrone, 
 T. Henderson, D. Ranasinghe, V. G. Zakrzewski, J. Gao, N. Rega, 
 G. Zheng, W. Liang, M. Hada, M. Ehara, K. Toyota, R. Fukuda, 
 J. Hasegawa, M. Ishida, T. Nakajima, Y. Honda, O. Kitao, H. Nakai, 
 T. Vreven, K. Throssell, J. A. Montgomery, Jr., J. E. Peralta, 
 F. Ogliaro, M. J. Bearpark, J. J. Heyd, E. N. Brothers, K. N. Kudin, 
 V. N. Staroverov, T. A. Keith, R. Kobayashi, J. Normand, 
 K. Raghavachari, A. P. Rendell, J. C. Burant, S. S. Iyengar, 
 J. Tomasi, M. Cossi, J. M. Millam, M. Klene, C. Adamo, R. Cammi, 
 J. W. Ochterski, R. L. Martin, K. Morokuma, O. Farkas, 
 J. B. Foresman, and D. J. Fox, Gaussian, Inc., Wallingford CT, 2019.
 
 ******************************************
 Gaussian 16:  ES64L-G16RevC.02  7-Dec-2021
                20-Feb-2025 
 ******************************************
 %chk=binol.001.tddft.chk
 %mem=9600MB
 SetSPE:  set environment variable "OMP_PROC_BIND" = "true"
 SetSPE:  set environment variable "OMP_PLACES" = "{88},{89},{90},{91},{92},{93},{94},{95}"
 ------------------------------
 # td=(nstat=16) b3lyp/6-31g(d)
 ------------------------------
 1/38=1,172=1/1;
 2/12=2,17=6,18=5,40=1/2;
 3/5=1,6=6,7=1,11=9,25=1,30=1,74=-5/1,2,3,8;
 4//1;
 5/5=2,38=5/2;
 8/6=1,10=2,108=16/1;
 9/41=16,42=1,70=2/14;
 6/7=2,8=2,9=2,10=2/1;
 99/5=1,9=1/99;
 ------------
 binol | No.1
 ------------
 Symbolic Z-matrix:
 Charge =  0 Multiplicity = 1
 C                    -2.47748  -1.99616   1.78557 
 C                    -1.47646  -1.18164   1.30577 
 C                    -1.71428  -0.28005   0.23041 
 C                    -3.03071  -0.24563  -0.33996 
 C                    -4.04044  -1.09883   0.17951 
 C                    -3.77508  -1.95821   1.22052 
 H                    -2.2701   -2.67664   2.60747 
 H                    -0.48524  -1.21934   1.74554 
 C                    -0.69013   0.57423  -0.28712 
 C                    -3.28743   0.64484  -1.41346 
 H                    -5.03274  -1.05895  -0.26466 
 H                    -4.55514  -2.60675   1.6098 
 C                    -2.297     1.46022  -1.90259 
 C                    -0.99697   1.4264   -1.33775 
 H                    -4.28324   0.67482  -1.84899 
 H                    -2.50136   2.14189  -2.72696 
 C                     3.77508  -1.95821  -1.22052 
 C                     4.04044  -1.09883  -0.17951 
 C                     3.03071  -0.24563   0.33996 
 C                     1.71428  -0.28005  -0.23041 
 C                     1.47646  -1.18164  -1.30577 
 C                     2.47748  -1.99616  -1.78557 
 H                     4.28324   0.67482   1.84899 
 H                     4.55514  -2.60675  -1.6098 
 H                     5.03274  -1.05895   0.26466 
 C                     3.28743   0.64484   1.41346 
 C                     0.69013   0.57423   0.28712 
 H                     0.48524  -1.21934  -1.74554 
 H                     2.2701   -2.67664  -2.60747 
 C                     0.99697   1.4264    1.33775 
 C                     2.297     1.46022   1.90259 
 H                     2.50136   2.14189   2.72696 
 O                    -0.00643   2.23761  -1.82115 
 H                    -0.36757   2.77309  -2.54408 
 O                     0.00643   2.23761   1.82115 
 H                     0.36757   2.77309   2.54408 
 
                          Input orientation:                          
 ---------------------------------------------------------------------
 Center     Atomic      Atomic             Coordinates (Angstroms)
 Number     Number       Type             X           Y           Z
 ---------------------------------------------------------------------
      1          6           0       -2.477476   -1.996161    1.785574
      2          6           0       -1.476456   -1.181637    1.305771
      3          6           0       -1.714282   -0.280051    0.230409
      4          6           0       -3.030710   -0.245625   -0.339964
      5          6           0       -4.040442   -1.098833    0.179509
      6          6           0       -3.775079   -1.958207    1.220519
      7          1           0       -2.270099   -2.676635    2.607468
      8          1           0       -0.485241   -1.219340    1.745543
      9          6           0       -0.690133    0.574229   -0.287119
     10          6           0       -3.287428    0.644839   -1.413456
     11          1           0       -5.032737   -1.058949   -0.264659
     12          1           0       -4.555143   -2.606748    1.609804
     13          6           0       -2.297001    1.460221   -1.902586
     14          6           0       -0.996973    1.426397   -1.337748
     15          1           0       -4.283243    0.674820   -1.848988
     16          1           0       -2.501360    2.141888   -2.726959
     17          6           0        3.775079   -1.958207   -1.220519
     18          6           0        4.040442   -1.098833   -0.179509
     19          6           0        3.030710   -0.245625    0.339964
     20          6           0        1.714282   -0.280051   -0.230409
     21          6           0        1.476456   -1.181637   -1.305771
     22          6           0        2.477476   -1.996161   -1.785574
     23          1           0        4.283243    0.674820    1.848988
     24          1           0        4.555143   -2.606748   -1.609804
     25          1           0        5.032737   -1.058949    0.264659
     26          6           0        3.287428    0.644839    1.413456
     27          6           0        0.690133    0.574229    0.287119
     28          1           0        0.485241   -1.219340   -1.745543
     29          1           0        2.270099   -2.676635   -2.607468
     30          6           0        0.996973    1.426397    1.337748
     31          6           0        2.297001    1.460221    1.902586
     32          1           0        2.501360    2.141888    2.726959
     33          8           0       -0.006431    2.237605   -1.821145
     34          1           0       -0.367573    2.773086   -2.544075
     35          8           0        0.006431    2.237605    1.821145
     36          1           0        0.367573    2.773086    2.544075
 ---------------------------------------------------------------------
                    Distance matrix (angstroms):
                    1          2          3          4          5
     1  C    0.000000
     2  C    1.376845   0.000000
     3  C    2.438450   1.423314   0.000000
     4  C    2.808622   2.449544   1.435093   0.000000
     5  C    2.414023   2.801669   2.466580   1.420343   0.000000
     6  C    1.415804   2.427755   2.836091   2.433543   1.375734
     7  H    1.086996   2.135253   3.420958   3.895599   3.393900
     8  H    2.138704   1.085048   2.165280   3.431745   3.886700
     9  C    3.754671   2.497733   1.430563   2.480575   3.773784
    10  C    4.226665   3.742971   2.456115   1.418173   2.478903
    11  H    3.407518   3.889529   3.444404   2.162239   1.087899
    12  H    2.172651   3.406126   3.922594   3.420584   2.141137
    13  C    5.057833   4.236303   2.813854   2.426938   3.731416
    14  C    4.864250   3.744321   2.426028   2.815549   4.235748
    15  H    4.858495   4.612699   3.440237   2.166382   2.705475
    16  H    6.122661   5.325332   3.902731   3.417334   4.617207
    17  C    6.937758   5.879100   5.920683   7.072982   7.986299
    18  C    6.866586   5.713937   5.827116   7.124247   8.088855
    19  C    5.957707   4.703557   4.746381   6.099436   7.124247
    20  C    4.957828   3.654246   3.459394   4.746381   5.827116
    21  C    5.084628   3.942060   3.654246   4.703557   5.713937
    22  C    6.107753   5.084628   4.957828   5.957707   6.866586
    23  H    7.269490   6.075825   6.285052   7.689775   8.672758
    24  H    7.833207   6.849212   6.935820   8.045655   8.908397
    25  H    7.719770   6.593069   6.791916   8.126884   9.073666
    26  C    6.351966   5.103156   5.222272   6.617120   7.632869
    27  C    4.345805   2.968977   2.552297   3.861356   5.018870
    28  H    4.674391   3.627698   3.102346   3.909691   4.919568
    29  H    6.503947   5.620065   5.447243   6.256993   7.076696
    30  C    4.897576   3.594540   3.389553   4.672537   5.752726
    31  C    5.895413   4.644844   4.681358   6.026894   7.048470
    32  H    6.542053   5.374813   5.465363   6.760920   7.732202
    33  O    6.085989   4.861049   3.669362   4.184088   5.604255
    34  H    6.778146   5.629456   4.339704   4.589447   5.991630
    35  O    4.908751   3.762417   3.439460   4.478956   5.495814
    36  H    5.604939   4.535821   4.359910   5.383180   6.325625
                    6          7          8          9         10
     6  C    0.000000
     7  H    2.169039   0.000000
     8  H    3.412420   2.460151   0.000000
     9  C    4.266509   4.630663   2.718563   0.000000
    10  C    3.735168   5.313660   4.615917   2.831883   0.000000
    11  H    2.143857   4.300952   4.974571   4.639610   2.696059
    12  H    1.086576   2.494322   4.302026   5.353058   4.617361
    13  C    4.860468   6.120040   4.875589   2.444737   1.372968
    14  C    5.071306   5.832705   4.094933   1.387142   2.421311
    15  H    4.075897   5.928322   5.561773   3.919183   1.087306
    16  H    5.832300   7.192201   5.946921   3.419198   2.141109
    17  C    7.934958   7.191231   5.243451   5.217527   7.529414
    18  C    7.986299   7.076696   4.919568   5.018870   7.632869
    19  C    7.072982   6.256993   3.909691   3.861356   6.617120
    20  C    5.920683   5.447243   3.102346   2.552297   5.222272
    21  C    5.879100   5.620065   3.627698   2.968977   5.103156
    22  C    6.937758   6.503947   4.674391   4.345805   6.351966
    23  H    8.500845   7.399583   5.131957   5.413644   8.243755
    24  H    8.821787   8.023353   6.211982   6.275431   8.492190
    25  H    8.905052   7.838181   5.715490   5.976870   8.657027
    26  C    7.529414   6.583613   4.221194   4.326423   7.156826
    27  C    5.217527   4.971429   2.593337   1.494953   4.326423
    28  H    5.243451   5.353906   3.623468   2.593337   4.221194
    29  H    7.191231   6.914402   5.353906   4.971429   6.583613
    30  C    5.851647   5.396371   3.059931   2.492531   5.151315
    31  C    7.001501   6.202325   3.865951   3.808249   6.545749
    32  H    7.646818   6.782276   4.602262   4.661314   7.272844
    33  O    6.407750   6.991892   4.990089   2.363790   3.669885
    34  H    6.940346   7.736760   5.861240   3.167470   3.785933
    35  O    5.680265   5.472718   3.492553   2.774310   4.883549
    36  H    6.426391   6.054816   4.159857   3.737563   5.792281
                   11         12         13         14         15
    11  H    0.000000
    12  H    2.477375   0.000000
    13  C    4.063653   5.828921   0.000000
    14  C    4.859615   6.133098   1.417836   0.000000
    15  H    2.465318   4.775548   2.136559   3.409663   0.000000
    16  H    4.766146   6.750932   1.089047   2.169105   2.469459
    17  C    8.905052   8.821787   7.001501   5.851647   8.500845
    18  C    9.073666   8.908397   7.048470   5.752726   8.672758
    19  C    8.126884   8.045655   6.026894   4.672537   7.689775
    20  C    6.791916   6.935820   4.681358   3.389553   6.285052
    21  C    6.593069   6.849212   4.644844   3.594540   6.075825
    22  C    7.719770   7.833207   5.895413   4.897576   7.269490
    23  H    9.708807   9.430958   7.615167   6.212957   9.330579
    24  H    9.804720   9.662463   7.973571   6.867770   9.430958
    25  H   10.079382   9.804720   8.047871   6.715806   9.708807
    26  C    8.657027   8.492190   6.545749   5.151315   8.243755
    27  C    5.976870   6.275431   3.808249   2.492531   5.413644
    28  H    5.715490   6.211982   3.865951   3.059931   5.131957
    29  H    7.838181   8.023353   6.202325   5.396371   7.399583
    30  C    6.715806   6.867770   4.620733   3.336780   6.212957
    31  C    8.047871   7.973571   5.965248   4.620733   7.615167
    32  H    8.715375   8.578567   6.702360   5.410370   8.313989
    33  O    6.209160   7.478633   2.420262   1.368541   4.553481
    34  H    6.453215   7.983299   2.420292   1.914403   4.496481
    35  O    6.372681   6.657355   4.447055   3.412255   5.857771
    36  H    7.192832   7.351776   5.347557   4.329446   6.732890
                   16         17         18         19         20
    16  H    0.000000
    17  C    7.646818   0.000000
    18  C    7.732202   1.375734   0.000000
    19  C    6.760920   2.433543   1.420343   0.000000
    20  C    5.465363   2.836091   2.466580   1.435093   0.000000
    21  C    5.374813   2.427755   2.801669   2.449544   1.423314
    22  C    6.542053   1.415804   2.414023   2.808622   2.438450
    23  H    8.313989   4.075897   2.705475   2.166382   3.440237
    24  H    8.578567   1.086576   2.141137   3.420584   3.922594
    25  H    8.715375   2.143857   1.087899   2.162239   3.444404
    26  C    7.272844   3.735168   2.478903   1.418173   2.456115
    27  C    4.661314   4.266509   3.773784   2.480575   1.430563
    28  H    4.602262   3.412420   3.886700   3.431745   2.165280
    29  H    6.782276   2.169039   3.393900   3.895599   3.420958
    30  C    5.410370   5.071306   4.235748   2.815549   2.426028
    31  C    6.702360   4.860468   3.731416   2.426938   2.813854
    32  H    7.400840   5.832300   4.617207   3.417334   3.902731
    33  O    2.655999   5.680265   5.495814   4.478956   3.439460
    34  H    2.232690   6.426391   6.325625   5.383180   4.359910
    35  O    5.194557   6.407750   5.604255   4.184088   3.669362
    36  H    6.034317   6.940346   5.991630   4.589447   4.339704
                   21         22         23         24         25
    21  C    0.000000
    22  C    1.376845   0.000000
    23  H    4.612699   4.858495   0.000000
    24  H    3.406126   2.172651   4.775548   0.000000
    25  H    3.889529   3.407518   2.465318   2.477375   0.000000
    26  C    3.742971   4.226665   1.087306   4.617361   2.696059
    27  C    2.497733   3.754671   3.919183   5.353058   4.639610
    28  H    1.085048   2.138704   5.561773   4.302026   4.974571
    29  H    2.135253   1.086996   5.928322   2.494322   4.300952
    30  C    3.744321   4.864250   3.409663   6.133098   4.859615
    31  C    4.236303   5.057833   2.136559   5.828921   4.063653
    32  H    5.325332   6.122661   2.469459   6.750932   4.766146
    33  O    3.762417   4.908751   5.857771   6.657355   6.372681
    34  H    4.535821   5.604939   6.732890   7.351776   7.192832
    35  O    4.861049   6.085989   4.553481   7.478633   6.209160
    36  H    5.629456   6.778146   4.496481   7.983299   6.453215
                   26         27         28         29         30
    26  C    0.000000
    27  C    2.831883   0.000000
    28  H    4.615917   2.718563   0.000000
    29  H    5.313660   4.630663   2.460151   0.000000
    30  C    2.421311   1.387142   4.094933   5.832705   0.000000
    31  C    1.372968   2.444737   4.875589   6.120040   1.417836
    32  H    2.141109   3.419198   5.946921   7.192201   2.169105
    33  O    4.883549   2.774310   3.492553   5.472718   3.412255
    34  H    5.792281   3.737563   4.159857   6.054816   4.329446
    35  O    3.669885   2.363790   4.990089   6.991892   1.368541
    36  H    3.785933   3.167470   5.861240   7.736760   1.914403
                   31         32         33         34         35
    31  C    0.000000
    32  H    1.089047   0.000000
    33  O    4.447055   5.194557   0.000000
    34  H    5.347557   6.034317   0.969428   0.000000
    35  O    2.420262   2.655999   3.642313   4.413815   0.000000
    36  H    2.420292   2.232690   4.413815   5.140983   0.969428
                   36
    36  H    0.000000
 Stoichiometry    C20H14O2
 Framework group  C2[X(C20H14O2)]
 Deg. of freedom    52
 Full point group                 C2      NOp   2
 Largest Abelian subgroup         C2      NOp   2
 Largest concise Abelian subgroup C2      NOp   2
                         Standard orientation:                         
 ---------------------------------------------------------------------
 Center     Atomic      Atomic             Coordinates (Angstroms)
 Number     Number       Type             X           Y           Z
 ---------------------------------------------------------------------
      1          6           0       -1.622280    2.587348   -1.996161
      2          6           0       -1.207954    1.557501   -1.181637
      3          6           0       -0.119505    1.725564   -0.280051
      4          6           0        0.534481    3.002517   -0.245625
      5          6           0        0.081128    4.043614   -1.098833
      6          6           0       -0.974813    3.845858   -1.958207
      7          1           0       -2.455825    2.433344   -2.676635
      8          1           0       -1.710661    0.596672   -1.219340
      9          6           0        0.330977    0.670205    0.574229
     10          6           0        1.622280    3.189553    0.644839
     11          1           0        0.588292    5.005237   -1.058949
     12          1           0       -1.313042    4.649378   -2.606748
     13          6           0        2.046596    2.169676    1.460221
     14          6           0        1.399190    0.908732    1.426397
     15          1           0        2.121052    4.155245    0.674820
     16          1           0        2.882420    2.320509    2.141888
     17          6           0        0.974813   -3.845858   -1.958207
     18          6           0       -0.081128   -4.043614   -1.098833
     19          6           0       -0.534481   -3.002517   -0.245625
     20          6           0        0.119505   -1.725564   -0.280051
     21          6           0        1.207954   -1.557501   -1.181637
     22          6           0        1.622280   -2.587348   -1.996161
     23          1           0       -2.121052   -4.155245    0.674820
     24          1           0        1.313042   -4.649378   -2.606748
     25          1           0       -0.588292   -5.005237   -1.058949
     26          6           0       -1.622280   -3.189553    0.644839
     27          6           0       -0.330977   -0.670205    0.574229
     28          1           0        1.710661   -0.596672   -1.219340
     29          1           0        2.455825   -2.433344   -2.676635
     30          6           0       -1.399190   -0.908732    1.426397
     31          6           0       -2.046596   -2.169676    1.460221
     32          1           0       -2.882420   -2.320509    2.141888
     33          8           0        1.817777   -0.110891    2.237605
     34          1           0        2.562469    0.202934    2.773086
     35          8           0       -1.817777    0.110891    2.237605
     36          1           0       -2.562469   -0.202934    2.773086
 ---------------------------------------------------------------------
 Rotational constants (GHZ):           0.4617326           0.2194128           0.2114639
 Standard basis: 6-31G(d) (6D, 7F)
 There are   179 symmetry adapted cartesian basis functions of A   symmetry.
 There are   179 symmetry adapted cartesian basis functions of B   symmetry.
 There are   179 symmetry adapted basis functions of A   symmetry.
 There are   179 symmetry adapted basis functions of B   symmetry.
   358 basis functions,   672 primitive gaussians,   358 cartesian basis functions
    75 alpha electrons       75 beta electrons
       nuclear repulsion energy      1672.2848819118 Hartrees.
 NAtoms=   36 NActive=   36 NUniq=   18 SFac= 4.00D+00 NAtFMM=   60 NAOKFM=F Big=F
 Integral buffers will be    131072 words long.
 Regular integral format.
 Two-electron integral symmetry is turned on.
 One-electron integrals computed using PRISM.
 NBasis=   358 RedAO= T EigKep=  2.31D-04  NBF=   179   179
 NBsUse=   358 1.00D-06 EigRej= -1.00D+00 NBFU=   179   179
 ExpMin= 1.61D-01 ExpMax= 5.48D+03 ExpMxC= 8.25D+02 IAcc=3 IRadAn=         5 AccDes= 0.00D+00
 Harris functional with IExCor=  402 and IRadAn=       5 diagonalized for initial guess.
 HarFok:  IExCor=  402 AccDes= 0.00D+00 IRadAn=         5 IDoV= 1 UseB2=F ITyADJ=14
 ICtDFT=  3500011 ScaDFX=  1.000000  1.000000  1.000000  1.000000
 FoFCou: FMM=F IPFlag=           0 FMFlag=      100000 FMFlg1=           0
         NFxFlg=           0 DoJE=T BraDBF=F KetDBF=T FulRan=T
         wScrn=  0.000000 ICntrl=       500 IOpCl=  0 I1Cent=   200000004 NGrid=           0
         NMat0=    1 NMatS0=      1 NMatT0=    0 NMatD0=    1 NMtDS0=    0 NMtDT0=    0
 Petite list used in FoFCou.
 Initial guess orbital symmetries:
       Occupied  (A) (B) (B) (A) (B) (A) (B) (A) (B) (A) (B) (A)
                 (B) (A) (B) (A) (A) (B) (A) (B) (A) (B) (A) (B)
                 (A) (B) (A) (B) (A) (B) (A) (B) (A) (B) (A) (B)
                 (A) (B) (A) (B) (B) (A) (A) (B) (A) (B) (A) (B)
                 (A) (B) (A) (B) (A) (B) (A) (B) (A) (A) (B) (B)
                 (A) (A) (B) (A) (B) (B) (A) (A) (B) (A) (B) (B)
                 (A) (A) (B)
       Virtual   (A) (B) (A) (B) (A) (B) (B) (A) (B) (A) (B) (A)
                 (B) (A) (B) (A) (B) (A) (B) (A) (B) (A) (A) (B)
                 (B) (A) (B) (A) (B) (A) (B) (B) (A) (A) (B) (A)
                 (B) (A) (A) (B) (B) (A) (B) (A) (B) (A) (B) (A)
                 (B) (A) (B) (A) (A) (A) (B) (B) (B) (A) (B) (A)
                 (A) (B) (B) (A) (A) (A) (B) (B) (A) (A) (B) (B)
                 (A) (B) (A) (B) (A) (B) (A) (B) (A) (B) (B) (A)
                 (B) (A) (A) (B) (A) (B) (B) (A) (B) (A) (B) (A)
                 (B) (B) (A) (B) (B) (A) (A) (B) (A) (B) (A) (B)
                 (A) (B) (A) (B) (B) (A) (A) (A) (B) (A) (B) (A)
                 (B) (B) (A) (B) (A) (A) (B) (A) (B) (A) (B) (A)
                 (B) (B) (A) (A) (B) (B) (A) (A) (B) (B) (A) (A)
                 (B) (A) (B) (A) (A) (B) (B) (B) (A) (B) (A) (A)
                 (B) (B) (A) (B) (A) (A) (B) (A) (A) (B) (B) (A)
                 (A) (B) (B) (A) (A) (B) (A) (B) (B) (A) (B) (A)
                 (B) (A) (B) (A) (B) (A) (B) (A) (A) (B) (A) (B)
                 (A) (B) (A) (B) (A) (B) (B) (A) (A) (B) (A) (B)
                 (A) (B) (A) (B) (A) (A) (B) (A) (B) (A) (B) (A)
                 (B) (B) (B) (A) (B) (A) (B) (A) (B) (A) (B) (A)
                 (A) (B) (A) (B) (B) (A) (B) (A) (A) (B) (B) (A)
                 (A) (B) (B) (A) (B) (A) (B) (A) (A) (B) (B) (A)
                 (B) (A) (B) (A) (B) (A) (B) (A) (B) (B) (A) (B)
                 (A) (A) (B) (A) (B) (B) (A) (A) (B) (A) (B) (A)
                 (B) (A) (B) (A) (B) (A) (B)
 The electronic state of the initial guess is 1-A.
 Requested convergence on RMS density matrix=1.00D-08 within 128 cycles.
 Requested convergence on MAX density matrix=1.00D-06.
 Requested convergence on             energy=1.00D-06.
 No special actions if energy rises.
 Integral accuracy reduced to 1.0D-05 until final iterations.
 Initial convergence to 1.0D-05 achieved.  Increase integral accuracy.
 SCF Done:  E(RB3LYP) =  -921.015748151     A.U. after   14 cycles
            NFock= 14  Conv=0.69D-08     -V/T= 2.0095
 DoSCS=F DFT=T ScalE2(SS,OS)=  1.000000  1.000000
 ExpMin= 1.61D-01 ExpMax= 5.48D+03 ExpMxC= 8.25D+02 IAcc=3 IRadAn=         5 AccDes= 0.00D+00
 HarFok:  IExCor=  205 AccDes= 0.00D+00 IRadAn=         5 IDoV=-2 UseB2=F ITyADJ=14
 ICtDFT= 12500011 ScaDFX=  1.000000  1.000000  1.000000  1.000000
 GSVD:  LWork=        -660 too small for GESVD, short by        2750 words or        2750 for optimal perf.
 Range of M.O.s used for correlation:    23   358
 NBasis=   358 NAE=    75 NBE=    75 NFC=    22 NFV=     0
 NROrb=    336 NOA=    53 NOB=    53 NVA=   283 NVB=   283
 Orbital symmetries:
       Occupied  (A) (B) (B) (A) (A) (B) (B) (A) (B) (A) (A) (B)
                 (A) (B) (B) (A) (A) (B) (B) (A) (B) (A) (A) (B)
                 (A) (B) (A) (B) (A) (B) (A) (B) (A) (B) (A) (B)
                 (A) (B) (A) (B) (A) (B) (A) (B) (A) (B) (A) (B)
                 (A) (B) (A) (B) (A) (B) (A) (A) (B) (B) (A) (A)
                 (B) (B) (A) (B) (A) (B) (A) (B) (A) (A) (B) (B)
                 (A) (A) (B)
       Virtual   (A) (B) (A) (B) (A) (B) (A) (B) (B) (A) (B) (A)
                 (B) (A) (B) (A) (B) (A) (B) (A) (A) (B) (A) (B)
                 (B) (A) (B) (A) (B) (A) (B) (B) (A) (B) (A) (A)
                 (A) (B) (B) (A) (B) (A) (B) (A) (B) (A) (A) (B)
                 (B) (A) (A) (B) (B) (A) (A) (B) (B) (A) (B) (A)
                 (A) (B) (A) (B) (A) (B) (A) (A) (B) (B) (A) (B)
                 (A) (B) (A) (A) (B) (B) (A) (B) (A) (B) (A) (B)
                 (B) (A) (A) (B) (B) (A) (B) (A) (B) (A) (B) (A)
                 (B) (A) (B) (B) (B) (A) (A) (A) (B) (B) (A) (A)
                 (B) (B) (A) (B) (B) (A) (A) (B) (A) (A) (B) (A)
                 (B) (B) (A) (B) (A) (A) (B) (B) (A) (A) (A) (B)
                 (B) (B) (A) (A) (B) (B) (A) (A) (B) (A) (B) (B)
                 (A) (A) (B) (A) (B) (B) (A) (A) (B) (B) (A) (B)
                 (B) (A) (A) (B) (A) (A) (B) (A) (B) (A) (A) (A)
                 (B) (B) (B) (A) (B) (A) (B) (A) (B) (A) (A) (B)
                 (B) (B) (A) (A) (B) (A) (A) (B) (A) (B) (A) (B)
                 (A) (B) (A) (B) (B) (A) (B) (A) (A) (B) (A) (B)
                 (A) (B) (A) (B) (A) (A) (B) (A) (B) (B) (A) (B)
                 (A) (B) (B) (A) (B) (A) (B) (A) (B) (A) (B) (A)
                 (A) (B) (B) (A) (A) (B) (B) (A) (A) (B) (B) (A)
                 (A) (B) (A) (B) (B) (A) (B) (A) (B) (A) (B) (A)
                 (B) (A) (B) (A) (B) (A) (B) (A) (B) (B) (A) (B)
                 (A) (A) (B) (B) (A) (A) (B) (A) (B) (A) (B) (A)
                 (B) (A) (B) (A) (B) (A) (B)
    64 initial guesses have been made.
 Convergence on wavefunction:    0.001000000000000
 Iteration     1 Dimension    64 NMult     0 NNew     64
 CISAX will form    64 AO SS matrices at one time.
 New state      2 was old state      3
 New state      3 was old state      4
 New state      4 was old state      2
 New state      7 was old state      9
 New state      8 was old state     11
 New state      9 was old state     12
 New state     11 was old state     17
 New state     12 was old state     19
 New state     15 was old state     21
 New state     16 was old state     23
 Iteration     2 Dimension    96 NMult    64 NNew     32
 New state      5 was old state      7
 New state      6 was old state      8
 New state      7 was old state      6
 New state      8 was old state      5
 New state      9 was old state     10
 New state     10 was old state      9
 New state     13 was old state     16
 New state     14 was old state     13
 New state     16 was old state     14
 Iteration     3 Dimension   128 NMult    96 NNew     32
 Iteration     4 Dimension   158 NMult   128 NNew     30
 Iteration     5 Dimension   176 NMult   158 NNew     18
 Iteration     6 Dimension   182 NMult   176 NNew      6
 Iteration     7 Dimension   184 NMult   182 NNew      2
 ***********************************************************************
 Excited states from <AA,BB:AA,BB> singles matrix:
 ***********************************************************************
 
 Ground to excited state transition densities written to RWF  633
 Ground to excited state transition electric dipole moments (Au):
       state          X           Y           Z        Dip. S.      Osc.
         1         0.1535      0.4350     -0.0000      0.2128      0.0202
         2         0.0000      0.0000      0.0312      0.0010      0.0001
         3        -0.6437     -1.0405      0.0000      1.4969      0.1492
         4         0.0000      0.0000      0.3485      0.1215      0.0123
         5        -0.1209     -0.5330     -0.0000      0.2987      0.0330
         6        -0.0000     -0.0000      0.0058      0.0000      0.0000
         7        -0.0690     -0.1143      0.0000      0.0178      0.0021
         8        -0.0000     -0.0000     -0.0717      0.0051      0.0006
         9         0.0000     -0.0000     -0.0884      0.0078      0.0009
        10         0.1466     -0.1680      0.0000      0.0497      0.0060
        11        -0.7469      0.9406      0.0000      1.4425      0.1952
        12         0.0000     -0.0000      0.8219      0.6755      0.0918
        13         0.2057      0.3180      0.0000      0.1434      0.0202
        14         0.0000      0.0000     -0.6709      0.4501      0.0633
        15         0.0000     -0.0000     -0.0264      0.0007      0.0001
        16         0.7420     -0.7643      0.0000      1.1347      0.1600
 Ground to excited state transition velocity dipole moments (Au):
       state          X           Y           Z        Dip. S.      Osc.
         1        -0.0256     -0.0625     -0.0000      0.0046      0.0214
         2        -0.0000     -0.0000     -0.0041      0.0000      0.0001
         3         0.0971      0.1747      0.0000      0.0399      0.1780
         4        -0.0000     -0.0000     -0.0457      0.0021      0.0092
         5         0.0258      0.0942     -0.0000      0.0095      0.0383
         6         0.0000      0.0000      0.0019      0.0000      0.0000
         7         0.0133      0.0216      0.0000      0.0006      0.0024
         8         0.0000      0.0000      0.0142      0.0002      0.0008
         9        -0.0000      0.0000      0.0089      0.0001      0.0003
        10        -0.0204      0.0217     -0.0000      0.0009      0.0033
        11         0.1422     -0.1890      0.0000      0.0560      0.1838
        12        -0.0000      0.0000     -0.1587      0.0252      0.0823
        13        -0.0377     -0.0781     -0.0000      0.0075      0.0238
        14        -0.0000     -0.0000      0.1448      0.0210      0.0662
        15        -0.0000      0.0000      0.0030      0.0000      0.0000
        16        -0.1586      0.1609     -0.0000      0.0510      0.1608
 Ground to excited state transition magnetic dipole moments (Au):
       state          X           Y           Z
         1        -0.1667     -0.0170      0.0000
         2        -0.0000     -0.0000      0.0301
         3         0.2775     -0.1518     -0.0000
         4        -0.0000      0.0000      0.7088
         5        -0.1827      0.0736     -0.0000
         6        -0.0000      0.0000      0.0014
         7         0.0325     -0.0312     -0.0000
         8         0.0000     -0.0000     -0.0961
         9        -0.0000      0.0000      0.0480
        10        -0.0946      0.0062      0.0000
        11         1.3029     -0.3666      0.0000
        12        -0.0000      0.0000      1.0091
        13         0.1904     -0.1250      0.0000
        14         0.0000     -0.0000     -0.6734
        15        -0.0000      0.0000     -0.0996
        16        -1.0129      0.2399     -0.0000
 Ground to excited state transition velocity quadrupole moments (Au):
       state          XX          YY          ZZ          XY          XZ          YZ
         1         0.0000     -0.0000     -0.0000     -0.0000     -0.0644      0.0501
         2        -0.0052      0.0686     -0.0001     -0.0242     -0.0000      0.0000
         3         0.0000      0.0000      0.0000      0.0000      0.1853     -0.0154
         4        -0.1004     -0.8567      0.0249     -0.4763     -0.0000      0.0000
         5         0.0000     -0.0000      0.0000     -0.0000      0.0365     -0.1890
         6        -0.0616      0.6186     -0.0156      0.1176      0.0000     -0.0000
         7        -0.0000     -0.0000     -0.0000      0.0000      0.0090      0.0270
         8         0.0048      0.0913     -0.0130      0.0958      0.0000     -0.0000
         9         0.0546     -0.0638      0.0053      0.0813      0.0000     -0.0000
        10         0.0000      0.0000      0.0000     -0.0000     -0.0063     -0.2118
        11        -0.0000      0.0000     -0.0000     -0.0000     -0.0709      0.8969
        12        -0.1346      0.8309      0.0643     -0.4805      0.0000     -0.0000
        13        -0.0000     -0.0000     -0.0000     -0.0000     -0.1622     -0.1403
        14         0.1356     -0.5114     -0.0337      0.5795     -0.0000     -0.0000
        15         0.0409      0.4583     -0.1004      0.2254      0.0000     -0.0000
        16        -0.0000     -0.0000      0.0000     -0.0000      0.0683     -0.9271
 <0|del|b> * <b|rxdel|0> + <0|del|b> * <b|delr+rdel|0>
 Rotatory Strengths (R) in cgs (10**-40 erg-esu-cm/Gauss)
       state          XX          YY          ZZ    R(velocity)    E-M Angle
         1        -7.3597      7.4202     26.4492      8.8366       61.89
         2        -0.0599     -0.5499      0.0000     -0.2033       90.00
         3      -139.2518     60.1727     81.0794      0.6668       89.62
         4       -24.7957   -126.3966      0.0000    -50.3975       90.00
         5         7.4484    -20.4601     22.4422      3.1435       83.39
         6         0.4790     -0.4681      0.0000      0.0037       90.00
         7        -1.7490      1.5889     -0.8158     -0.3253      102.26
         8        -0.0083     -5.4848      0.0000     -1.8311       90.00
         9         2.2753     -0.5867     -0.0000      0.5628       90.00
        10         0.5320     12.2954     -4.7077      2.7066       42.95
        11        97.3923    544.9254    244.6360    295.6512       37.33
        12      -145.4425   -409.8796     -0.0000   -185.1074       90.00
        13        -4.8701     -3.1666     16.6767      2.8800       82.50
        14       -22.7719   -303.8573     -0.0000   -108.8764       90.00
        15         0.6262     -1.6179     -0.0000     -0.3306       90.00
        16        46.1354    514.2725    105.6132    222.0070       32.09
 1/2[<0|r|b>*<b|rxdel|0> + (<0|rxdel|b>*<b|r|0>)*]
 Rotatory Strengths (R) in cgs (10**-40 erg-esu-cm/Gauss)
       state          XX          YY          ZZ     R(length)
         1        18.0941      5.2433      0.0000      7.7791
         2         0.0000      0.0000     -0.6642     -0.2214
         3       126.3180   -111.7188      0.0000      4.8664
         4         0.0000     -0.0000   -174.6903    -58.2301
         5       -15.6252     27.7493     -0.0000      4.0414
         6        -0.0000      0.0000     -0.0056     -0.0019
         7         1.5842     -2.5203      0.0000     -0.3120
         8         0.0000     -0.0000     -4.8736     -1.6245
         9         0.0000      0.0000      2.9997      0.9999
        10         9.8109      0.7320     -0.0000      3.5143
        11       688.1336    243.8360     -0.0000    310.6565
        12         0.0000      0.0000   -586.5050   -195.5017
        13       -27.6927     28.1169     -0.0000      0.1414
        14        -0.0000      0.0000   -319.4783   -106.4928
        15         0.0000      0.0000     -1.8611     -0.6204
        16       531.4828    129.6448      0.0000    220.3759
  1/2[<0|del|b>*<b|r|0> + (<0|r|b>*<b|del|0>)*] (Au)
       state          X           Y           Z        Dip. S.   Osc.(frdel)
         1        -0.0039     -0.0272      0.0000      0.0311      0.0207
         2        -0.0000     -0.0000     -0.0001      0.0001      0.0001
         3        -0.0625     -0.1817      0.0000      0.2442      0.1628
         4        -0.0000     -0.0000     -0.0159      0.0159      0.0106
         5        -0.0031     -0.0502      0.0000      0.0533      0.0355
         6        -0.0000     -0.0000      0.0000     -0.0000     -0.0000
         7        -0.0009     -0.0025      0.0000      0.0034      0.0023
         8        -0.0000     -0.0000     -0.0010      0.0010      0.0007
         9        -0.0000     -0.0000     -0.0008      0.0008      0.0005
        10        -0.0030     -0.0036     -0.0000      0.0066      0.0044
        11        -0.1062     -0.1778      0.0000      0.2840      0.1893
        12        -0.0000     -0.0000     -0.1304      0.1304      0.0870
        13        -0.0078     -0.0248     -0.0000      0.0326      0.0217
        14        -0.0000     -0.0000     -0.0971      0.0971      0.0648
        15        -0.0000     -0.0000     -0.0001      0.0001      0.0001
        16        -0.1177     -0.1230     -0.0000      0.2406      0.1604

 Excitation energies and oscillator strengths:
 
 Excited State   1:      Singlet-B      3.8712 eV  320.28 nm  f=0.0202  <S**2>=0.000
      74 -> 77         0.35134
      75 -> 76         0.60774
 This state for optimization and/or second-order correction.
 Total Energy, E(TD-HF/TD-DFT) =  -920.873485007    
 Copying the excited state density for this state as the 1-particle RhoCI density.
 
 Excited State   2:      Singlet-A      3.8839 eV  319.23 nm  f=0.0001  <S**2>=0.000
      74 -> 76         0.51143
      75 -> 77         0.48431
 
 Excited State   3:      Singlet-B      4.0694 eV  304.68 nm  f=0.1492  <S**2>=0.000
      72 -> 78        -0.10089
      74 -> 77         0.58579
      75 -> 76        -0.31640
      75 -> 78         0.12916
 
 Excited State   4:      Singlet-A      4.1194 eV  300.98 nm  f=0.0123  <S**2>=0.000
      72 -> 77         0.12101
      72 -> 79         0.10871
      73 -> 78         0.12355
      74 -> 76        -0.44119
      74 -> 78         0.12442
      75 -> 77         0.47487
 
 Excited State   5:      Singlet-B      4.5148 eV  274.61 nm  f=0.0330  <S**2>=0.000
      72 -> 76         0.37889
      73 -> 77         0.34791
      74 -> 77         0.13547
      74 -> 79         0.23480
      75 -> 76        -0.13501
      75 -> 78        -0.36951
 
 Excited State   6:      Singlet-A      4.5300 eV  273.70 nm  f=0.0000  <S**2>=0.000
      72 -> 77         0.31450
      73 -> 76         0.39036
      74 -> 76         0.16397
      74 -> 78         0.32621
      75 -> 77        -0.14962
      75 -> 79        -0.29480
 
 Excited State   7:      Singlet-B      4.7806 eV  259.35 nm  f=0.0021  <S**2>=0.000
      72 -> 76        -0.48909
      73 -> 77         0.50881
 
 Excited State   8:      Singlet-A      4.7815 eV  259.30 nm  f=0.0006  <S**2>=0.000
      72 -> 77         0.51688
      73 -> 76        -0.47866
 
 Excited State   9:      Singlet-A      4.8919 eV  253.45 nm  f=0.0009  <S**2>=0.000
      74 -> 78         0.49055
      75 -> 79         0.50548
 
 Excited State  10:      Singlet-B      4.8961 eV  253.23 nm  f=0.0060  <S**2>=0.000
      74 -> 79         0.52242
      75 -> 78         0.46472
 
 Excited State  11:      Singlet-B      5.5229 eV  224.49 nm  f=0.1952  <S**2>=0.000
      70 -> 77        -0.24025
      71 -> 76        -0.34073
      72 -> 76        -0.15958
      73 -> 77        -0.15923
      74 -> 79         0.18157
      74 -> 81        -0.25795
      75 -> 78        -0.16674
      75 -> 80         0.37719
 
 Excited State  12:      Singlet-A      5.5493 eV  223.42 nm  f=0.0918  <S**2>=0.000
      70 -> 76         0.29002
      71 -> 77         0.37153
      72 -> 77         0.14825
      73 -> 76         0.13652
      74 -> 78        -0.14329
      74 -> 80         0.29188
      75 -> 79         0.13658
      75 -> 81        -0.31988
 
 Excited State  13:      Singlet-B      5.7397 eV  216.01 nm  f=0.0202  <S**2>=0.000
      70 -> 77        -0.12165
      71 -> 76         0.34464
      72 -> 78        -0.26513
      74 -> 81         0.26708
      75 -> 80         0.45166
 
 Excited State  14:      Singlet-A      5.7442 eV  215.84 nm  f=0.0633  <S**2>=0.000
      70 -> 76        -0.10409
      71 -> 77         0.17354
      72 -> 79        -0.21485
      73 -> 78         0.30577
      74 -> 80         0.43837
      75 -> 81         0.29231
 
 Excited State  15:      Singlet-A      5.7538 eV  215.48 nm  f=0.0001  <S**2>=0.000
      72 -> 79        -0.28800
      73 -> 78         0.50105
      74 -> 80        -0.23030
      75 -> 81        -0.30457
 
 Excited State  16:      Singlet-B      5.7562 eV  215.39 nm  f=0.1600  <S**2>=0.000
      71 -> 76        -0.29708
      72 -> 76         0.11575
      72 -> 78        -0.38781
      73 -> 77         0.12255
      73 -> 79         0.42635
      74 -> 79        -0.14788
      75 -> 78         0.13638
 SavETr:  write IOETrn=   770 NScale= 10 NData=  16 NLR=1 NState=   16 LETran=     298.

 **********************************************************************

            Population analysis using the SCF Density.

 **********************************************************************

 Orbital symmetries:
       Occupied  (A) (B) (B) (A) (A) (B) (B) (A) (B) (A) (A) (B)
                 (A) (B) (B) (A) (A) (B) (B) (A) (B) (A) (A) (B)
                 (A) (B) (A) (B) (A) (B) (A) (B) (A) (B) (A) (B)
                 (A) (B) (A) (B) (A) (B) (A) (B) (A) (B) (A) (B)
                 (A) (B) (A) (B) (A) (B) (A) (A) (B) (B) (A) (A)
                 (B) (B) (A) (B) (A) (B) (A) (B) (A) (A) (B) (B)
                 (A) (A) (B)
       Virtual   (A) (B) (A) (B) (A) (B) (A) (B) (B) (A) (B) (A)
                 (B) (A) (B) (A) (B) (A) (B) (A) (A) (B) (A) (B)
                 (B) (A) (B) (A) (B) (A) (B) (B) (A) (B) (A) (A)
                 (A) (B) (B) (A) (B) (A) (B) (A) (B) (A) (A) (B)
                 (B) (A) (A) (B) (B) (A) (A) (B) (B) (A) (B) (A)
                 (A) (B) (A) (B) (A) (B) (A) (A) (B) (B) (A) (B)
                 (A) (B) (A) (A) (B) (B) (A) (B) (A) (B) (A) (B)
                 (B) (A) (A) (B) (B) (A) (B) (A) (B) (A) (B) (A)
                 (B) (A) (B) (B) (B) (A) (A) (A) (B) (B) (A) (A)
                 (B) (B) (A) (B) (B) (A) (A) (B) (A) (A) (B) (A)
                 (B) (B) (A) (B) (A) (A) (B) (B) (A) (A) (A) (B)
                 (B) (B) (A) (A) (B) (B) (A) (A) (B) (A) (B) (B)
                 (A) (A) (B) (A) (B) (B) (A) (A) (B) (B) (A) (B)
                 (B) (A) (A) (B) (A) (A) (B) (A) (B) (A) (A) (A)
                 (B) (B) (B) (A) (B) (A) (B) (A) (B) (A) (A) (B)
                 (B) (B) (A) (A) (B) (A) (A) (B) (A) (B) (A) (B)
                 (A) (B) (A) (B) (B) (A) (B) (A) (A) (B) (A) (B)
                 (A) (B) (A) (B) (A) (A) (B) (A) (B) (B) (A) (B)
                 (A) (B) (B) (A) (B) (A) (B) (A) (B) (A) (B) (A)
                 (A) (B) (B) (A) (A) (B) (B) (A) (A) (B) (B) (A)
                 (A) (B) (A) (B) (B) (A) (B) (A) (B) (A) (B) (A)
                 (B) (A) (B) (A) (B) (A) (B) (A) (B) (B) (A) (B)
                 (A) (A) (B) (B) (A) (A) (B) (A) (B) (A) (B) (A)
                 (B) (A) (B) (A) (B) (A) (B)
 The electronic state is 1-A.
 Alpha  occ. eigenvalues --  -19.17438 -19.17438 -10.24562 -10.24562 -10.19218
 Alpha  occ. eigenvalues --  -10.19218 -10.19125 -10.19125 -10.19060 -10.19060
 Alpha  occ. eigenvalues --  -10.18788 -10.18788 -10.18647 -10.18619 -10.18278
 Alpha  occ. eigenvalues --  -10.18278 -10.18139 -10.18139 -10.18009 -10.18009
 Alpha  occ. eigenvalues --  -10.17697 -10.17696  -1.05629  -1.05419  -0.86995
 Alpha  occ. eigenvalues --   -0.85900  -0.81375  -0.80805  -0.78614  -0.75059
 Alpha  occ. eigenvalues --   -0.72935  -0.72873  -0.72065  -0.70169  -0.62948
 Alpha  occ. eigenvalues --   -0.62040  -0.61482  -0.61027  -0.59780  -0.56753
 Alpha  occ. eigenvalues --   -0.54495  -0.54384  -0.51482  -0.49776  -0.49403
 Alpha  occ. eigenvalues --   -0.48698  -0.46384  -0.46245  -0.44109  -0.42886
 Alpha  occ. eigenvalues --   -0.42597  -0.42059  -0.41531  -0.41527  -0.40993
 Alpha  occ. eigenvalues --   -0.39682  -0.39673  -0.39302  -0.38615  -0.36564
 Alpha  occ. eigenvalues --   -0.35979  -0.35785  -0.35198  -0.34088  -0.34008
 Alpha  occ. eigenvalues --   -0.33244  -0.31263  -0.30065  -0.30054  -0.27022
 Alpha  occ. eigenvalues --   -0.26634  -0.22645  -0.22580  -0.19823  -0.19610
 Alpha virt. eigenvalues --   -0.03102  -0.02923   0.00354   0.00862   0.03912
 Alpha virt. eigenvalues --    0.04126   0.06997   0.07113   0.10220   0.10431
 Alpha virt. eigenvalues --    0.11232   0.11359   0.11820   0.12030   0.14459
 Alpha virt. eigenvalues --    0.15391   0.17514   0.17542   0.18831   0.18948
 Alpha virt. eigenvalues --    0.19904   0.19988   0.20813   0.20868   0.22590
 Alpha virt. eigenvalues --    0.24074   0.26326   0.27452   0.27932   0.29424
 Alpha virt. eigenvalues --    0.30862   0.31619   0.32109   0.33310   0.33315
 Alpha virt. eigenvalues --    0.34499   0.36519   0.36567   0.38463   0.38703
 Alpha virt. eigenvalues --    0.41265   0.46159   0.49269   0.49331   0.50109
 Alpha virt. eigenvalues --    0.51203   0.52317   0.52456   0.52762   0.53018
 Alpha virt. eigenvalues --    0.53910   0.54200   0.55028   0.55138   0.55396
 Alpha virt. eigenvalues --    0.56033   0.56611   0.57146   0.57710   0.59245
 Alpha virt. eigenvalues --    0.59639   0.60091   0.60387   0.60722   0.60914
 Alpha virt. eigenvalues --    0.61123   0.61636   0.61864   0.62194   0.62968
 Alpha virt. eigenvalues --    0.62979   0.64128   0.64194   0.64832   0.65821
 Alpha virt. eigenvalues --    0.66402   0.67200   0.68258   0.68587   0.70113
 Alpha virt. eigenvalues --    0.70448   0.74409   0.75404   0.75520   0.77094
 Alpha virt. eigenvalues --    0.78589   0.80271   0.80770   0.81856   0.82626
 Alpha virt. eigenvalues --    0.83384   0.84446   0.84853   0.85256   0.85295
 Alpha virt. eigenvalues --    0.86136   0.86331   0.86685   0.87262   0.87790
 Alpha virt. eigenvalues --    0.88950   0.88968   0.90898   0.91284   0.91975
 Alpha virt. eigenvalues --    0.94720   0.94948   0.96478   0.97121   0.98599
 Alpha virt. eigenvalues --    1.00520   1.00851   1.01955   1.02275   1.03775
 Alpha virt. eigenvalues --    1.04359   1.05168   1.05770   1.07095   1.07595
 Alpha virt. eigenvalues --    1.08789   1.09724   1.12501   1.13988   1.14639
 Alpha virt. eigenvalues --    1.15712   1.18997   1.20195   1.20361   1.23074
 Alpha virt. eigenvalues --    1.24240   1.24608   1.25363   1.26090   1.26986
 Alpha virt. eigenvalues --    1.27967   1.29284   1.30371   1.33433   1.38298
 Alpha virt. eigenvalues --    1.38957   1.40700   1.40817   1.41945   1.42174
 Alpha virt. eigenvalues --    1.43966   1.45346   1.45662   1.46003   1.46601
 Alpha virt. eigenvalues --    1.47261   1.47792   1.48001   1.48685   1.50281
 Alpha virt. eigenvalues --    1.50608   1.51187   1.51254   1.52050   1.53581
 Alpha virt. eigenvalues --    1.60975   1.66434   1.67388   1.71120   1.75329
 Alpha virt. eigenvalues --    1.75667   1.76631   1.77670   1.77789   1.78405
 Alpha virt. eigenvalues --    1.79139   1.80851   1.83032   1.84543   1.86025
 Alpha virt. eigenvalues --    1.86221   1.87110   1.88997   1.90366   1.90692
 Alpha virt. eigenvalues --    1.91948   1.92961   1.93245   1.93711   1.94564
 Alpha virt. eigenvalues --    1.95418   1.96717   1.98020   1.99052   2.00739
 Alpha virt. eigenvalues --    2.01894   2.02908   2.04031   2.04915   2.06683
 Alpha virt. eigenvalues --    2.06743   2.08285   2.08429   2.14727   2.15154
 Alpha virt. eigenvalues --    2.17347   2.17503   2.20337   2.21114   2.22547
 Alpha virt. eigenvalues --    2.22658   2.26103   2.26257   2.28731   2.29220
 Alpha virt. eigenvalues --    2.29926   2.30463   2.33191   2.35127   2.35149
 Alpha virt. eigenvalues --    2.35866   2.35880   2.36458   2.37504   2.37923
 Alpha virt. eigenvalues --    2.39210   2.43058   2.46069   2.47960   2.52358
 Alpha virt. eigenvalues --    2.52678   2.54100   2.58241   2.60467   2.61844
 Alpha virt. eigenvalues --    2.62854   2.63377   2.64586   2.64712   2.65621
 Alpha virt. eigenvalues --    2.66159   2.67520   2.68850   2.69897   2.75221
 Alpha virt. eigenvalues --    2.75694   2.78879   2.80222   2.80234   2.82054
 Alpha virt. eigenvalues --    2.85052   2.87638   2.89214   2.90184   2.90893
 Alpha virt. eigenvalues --    2.92942   2.98189   3.01528   3.04612   3.09330
 Alpha virt. eigenvalues --    3.15217   3.17031   3.36897   3.39459   3.47114
 Alpha virt. eigenvalues --    3.50841   4.01447   4.02258   4.09385   4.09780
 Alpha virt. eigenvalues --    4.10837   4.11415   4.14450   4.14464   4.16851
 Alpha virt. eigenvalues --    4.17169   4.24079   4.28177   4.31808   4.32906
 Alpha virt. eigenvalues --    4.39302   4.44173   4.46249   4.50829   4.63553
 Alpha virt. eigenvalues --    4.64679   4.87760   4.91830
          Condensed to atoms (all electrons):
               1          2          3          4          5          6
     1  C    4.902204   0.512200   0.001439  -0.038573  -0.018603   0.493753
     2  C    0.512200   5.156699   0.442347  -0.051666  -0.071581  -0.019723
     3  C    0.001439   0.442347   4.765958   0.446636  -0.023737  -0.039702
     4  C   -0.038573  -0.051666   0.446636   4.766405   0.447781  -0.005211
     5  C   -0.018603  -0.071581  -0.023737   0.447781   5.101499   0.517964
     6  C    0.493753  -0.019723  -0.039702  -0.005211   0.517964   4.909938
     7  H    0.356718  -0.036975   0.002698   0.001038   0.004372  -0.042473
     8  H   -0.047214   0.348009  -0.031889   0.005551   0.000434   0.004452
     9  C    0.008579  -0.098860   0.413993  -0.011933   0.015328  -0.000646
    10  C   -0.000786   0.016824  -0.018061   0.426176  -0.093992   0.008464
    11  H    0.004691   0.000488   0.004356  -0.043042   0.353541  -0.045812
    12  H   -0.041293   0.004211   0.000979   0.002817  -0.037510   0.356514
    13  C    0.000073  -0.001374  -0.055728   0.007261   0.009316  -0.000404
    14  C   -0.000372   0.014216   0.022800  -0.059004  -0.000965   0.000058
    15  H    0.000018  -0.000202   0.004261  -0.036576  -0.008049   0.000164
    16  H   -0.000000   0.000016   0.001234   0.002052  -0.000207   0.000004
    17  C    0.000000   0.000001   0.000000   0.000000  -0.000000  -0.000000
    18  C    0.000000   0.000000  -0.000005  -0.000000   0.000000  -0.000000
    19  C   -0.000002  -0.000104  -0.000071   0.000002  -0.000000   0.000000
    20  C    0.000032  -0.000374  -0.002244  -0.000071  -0.000005   0.000000
    21  C   -0.000005   0.000712  -0.000374  -0.000104   0.000000   0.000001
    22  C   -0.000001  -0.000005   0.000032  -0.000002   0.000000   0.000000
    23  H    0.000000  -0.000000   0.000000   0.000000  -0.000000  -0.000000
    24  H   -0.000000  -0.000000   0.000000   0.000000   0.000000  -0.000000
    25  H   -0.000000   0.000000  -0.000000   0.000000  -0.000000   0.000000
    26  C   -0.000001  -0.000022   0.000047   0.000000  -0.000000   0.000000
    27  C    0.000630  -0.022534  -0.049669   0.008609  -0.000082  -0.000001
    28  H   -0.000013   0.000094   0.001143   0.000035  -0.000004  -0.000001
    29  H   -0.000000  -0.000001  -0.000001  -0.000000   0.000000   0.000000
    30  C    0.000057  -0.000887  -0.003191   0.000053  -0.000006  -0.000001
    31  C   -0.000004  -0.000186   0.000095   0.000004  -0.000000   0.000000
    32  H    0.000000   0.000002  -0.000001  -0.000000   0.000000  -0.000000
    33  O    0.000000  -0.000047   0.002423   0.000201   0.000000  -0.000000
    34  H   -0.000000   0.000006   0.000134  -0.000118  -0.000001   0.000000
    35  O    0.000013   0.000659  -0.000842  -0.000099   0.000001  -0.000000
    36  H   -0.000001  -0.000024   0.000012   0.000001   0.000000   0.000000
               7          8          9         10         11         12
     1  C    0.356718  -0.047214   0.008579  -0.000786   0.004691  -0.041293
     2  C   -0.036975   0.348009  -0.098860   0.016824   0.000488   0.004211
     3  C    0.002698  -0.031889   0.413993  -0.018061   0.004356   0.000979
     4  C    0.001038   0.005551  -0.011933   0.426176  -0.043042   0.002817
     5  C    0.004372   0.000434   0.015328  -0.093992   0.353541  -0.037510
     6  C   -0.042473   0.004452  -0.000646   0.008464  -0.045812   0.356514
     7  H    0.599083  -0.005333  -0.000199   0.000010  -0.000194  -0.004850
     8  H   -0.005333   0.584328  -0.016517  -0.000185   0.000019  -0.000179
     9  C   -0.000199  -0.016517   5.327012  -0.068291  -0.000169   0.000012
    10  C    0.000010  -0.000185  -0.068291   5.146667  -0.008668  -0.000193
    11  H   -0.000194   0.000019  -0.000169  -0.008668   0.608805  -0.005485
    12  H   -0.004850  -0.000179   0.000012  -0.000193  -0.005485   0.600334
    13  C   -0.000001   0.000014  -0.043993   0.446440   0.000279   0.000003
    14  C    0.000003   0.000175   0.444573   0.014197   0.000007  -0.000000
    15  H   -0.000000   0.000002   0.000786   0.349476   0.006663  -0.000012
    16  H   -0.000000   0.000000   0.003971  -0.028114  -0.000012  -0.000000
    17  C    0.000000  -0.000001  -0.000001   0.000000   0.000000  -0.000000
    18  C    0.000000  -0.000004  -0.000082  -0.000000  -0.000000   0.000000
    19  C   -0.000000   0.000035   0.008609   0.000000   0.000000   0.000000
    20  C   -0.000001   0.001143  -0.049669   0.000047  -0.000000   0.000000
    21  C   -0.000001   0.000094  -0.022534  -0.000022   0.000000  -0.000000
    22  C   -0.000000  -0.000013   0.000630  -0.000001  -0.000000  -0.000000
    23  H   -0.000000  -0.000000   0.000011  -0.000000   0.000000  -0.000000
    24  H    0.000000  -0.000000   0.000000  -0.000000  -0.000000  -0.000000
    25  H   -0.000000   0.000000   0.000001  -0.000000   0.000000  -0.000000
    26  C   -0.000000  -0.000048  -0.000839   0.000000  -0.000000  -0.000000
    27  C   -0.000010   0.015374   0.261093  -0.000839   0.000001   0.000000
    28  H   -0.000000   0.000003   0.015374  -0.000048   0.000000  -0.000000
    29  H    0.000000  -0.000000  -0.000010  -0.000000  -0.000000   0.000000
    30  C   -0.000000   0.001923  -0.085191   0.000010   0.000000   0.000000
    31  C   -0.000000   0.000252   0.008510  -0.000000   0.000000   0.000000
    32  H   -0.000000  -0.000000  -0.000185   0.000000  -0.000000   0.000000
    33  O   -0.000000  -0.000001  -0.057232   0.004788  -0.000000   0.000000
    34  H    0.000000   0.000000   0.007742   0.000872  -0.000000  -0.000000
    35  O   -0.000000  -0.000374  -0.002928  -0.000002   0.000000  -0.000000
    36  H   -0.000000   0.000003  -0.000107  -0.000000  -0.000000   0.000000
              13         14         15         16         17         18
     1  C    0.000073  -0.000372   0.000018  -0.000000   0.000000   0.000000
     2  C   -0.001374   0.014216  -0.000202   0.000016   0.000001   0.000000
     3  C   -0.055728   0.022800   0.004261   0.001234   0.000000  -0.000005
     4  C    0.007261  -0.059004  -0.036576   0.002052   0.000000  -0.000000
     5  C    0.009316  -0.000965  -0.008049  -0.000207  -0.000000   0.000000
     6  C   -0.000404   0.000058   0.000164   0.000004  -0.000000  -0.000000
     7  H   -0.000001   0.000003  -0.000000  -0.000000   0.000000   0.000000
     8  H    0.000014   0.000175   0.000002   0.000000  -0.000001  -0.000004
     9  C   -0.043993   0.444573   0.000786   0.003971  -0.000001  -0.000082
    10  C    0.446440   0.014197   0.349476  -0.028114   0.000000  -0.000000
    11  H    0.000279   0.000007   0.006663  -0.000012   0.000000  -0.000000
    12  H    0.000003  -0.000000  -0.000012  -0.000000  -0.000000   0.000000
    13  C    5.189353   0.408909  -0.040126   0.338735   0.000000  -0.000000
    14  C    0.408909   4.687159   0.002869  -0.040521  -0.000001  -0.000006
    15  H   -0.040126   0.002869   0.595280  -0.005380  -0.000000  -0.000000
    16  H    0.338735  -0.040521  -0.005380   0.607234  -0.000000   0.000000
    17  C    0.000000  -0.000001  -0.000000  -0.000000   4.909938   0.517964
    18  C   -0.000000  -0.000006  -0.000000   0.000000   0.517964   5.101499
    19  C    0.000004   0.000053   0.000000  -0.000000  -0.005211   0.447781
    20  C    0.000095  -0.003191   0.000000  -0.000001  -0.039702  -0.023737
    21  C   -0.000186  -0.000887  -0.000000   0.000002  -0.019723  -0.071581
    22  C   -0.000004   0.000057   0.000000   0.000000   0.493753  -0.018603
    23  H    0.000000   0.000000  -0.000000  -0.000000   0.000164  -0.008049
    24  H    0.000000   0.000000  -0.000000   0.000000   0.356514  -0.037510
    25  H    0.000000   0.000000   0.000000  -0.000000  -0.045812   0.353541
    26  C   -0.000000   0.000010  -0.000000   0.000000   0.008464  -0.093992
    27  C    0.008510  -0.085191   0.000011  -0.000185  -0.000646   0.015328
    28  H    0.000252   0.001923  -0.000000  -0.000000   0.004452   0.000434
    29  H   -0.000000  -0.000000  -0.000000  -0.000000  -0.042473   0.004372
    30  C    0.000228  -0.002832   0.000000  -0.000002   0.000058  -0.000965
    31  C    0.000005   0.000228   0.000000  -0.000000  -0.000404   0.009316
    32  H   -0.000000  -0.000002  -0.000000   0.000000   0.000004  -0.000207
    33  O   -0.064883   0.297451  -0.000056  -0.005185  -0.000000   0.000001
    34  H   -0.006763  -0.032879  -0.000015   0.007696   0.000000   0.000000
    35  O    0.000046   0.001373  -0.000000   0.000002  -0.000000   0.000000
    36  H   -0.000002  -0.000052   0.000000  -0.000000   0.000000  -0.000001
              19         20         21         22         23         24
     1  C   -0.000002   0.000032  -0.000005  -0.000001   0.000000  -0.000000
     2  C   -0.000104  -0.000374   0.000712  -0.000005  -0.000000  -0.000000
     3  C   -0.000071  -0.002244  -0.000374   0.000032   0.000000   0.000000
     4  C    0.000002  -0.000071  -0.000104  -0.000002   0.000000   0.000000
     5  C   -0.000000  -0.000005   0.000000   0.000000  -0.000000   0.000000
     6  C    0.000000   0.000000   0.000001   0.000000  -0.000000  -0.000000
     7  H   -0.000000  -0.000001  -0.000001  -0.000000  -0.000000   0.000000
     8  H    0.000035   0.001143   0.000094  -0.000013  -0.000000  -0.000000
     9  C    0.008609  -0.049669  -0.022534   0.000630   0.000011   0.000000
    10  C    0.000000   0.000047  -0.000022  -0.000001  -0.000000  -0.000000
    11  H    0.000000  -0.000000   0.000000  -0.000000   0.000000  -0.000000
    12  H    0.000000   0.000000  -0.000000  -0.000000  -0.000000  -0.000000
    13  C    0.000004   0.000095  -0.000186  -0.000004   0.000000   0.000000
    14  C    0.000053  -0.003191  -0.000887   0.000057   0.000000   0.000000
    15  H    0.000000   0.000000  -0.000000   0.000000  -0.000000  -0.000000
    16  H   -0.000000  -0.000001   0.000002   0.000000  -0.000000   0.000000
    17  C   -0.005211  -0.039702  -0.019723   0.493753   0.000164   0.356514
    18  C    0.447781  -0.023737  -0.071581  -0.018603  -0.008049  -0.037510
    19  C    4.766405   0.446636  -0.051666  -0.038573  -0.036576   0.002817
    20  C    0.446636   4.765958   0.442347   0.001439   0.004261   0.000979
    21  C   -0.051666   0.442347   5.156699   0.512200  -0.000202   0.004211
    22  C   -0.038573   0.001439   0.512200   4.902204   0.000018  -0.041293
    23  H   -0.036576   0.004261  -0.000202   0.000018   0.595280  -0.000012
    24  H    0.002817   0.000979   0.004211  -0.041293  -0.000012   0.600334
    25  H   -0.043042   0.004356   0.000488   0.004691   0.006663  -0.005485
    26  C    0.426176  -0.018061   0.016824  -0.000786   0.349476  -0.000193
    27  C   -0.011933   0.413993  -0.098860   0.008579   0.000786   0.000012
    28  H    0.005551  -0.031889   0.348009  -0.047214   0.000002  -0.000179
    29  H    0.001038   0.002698  -0.036975   0.356718  -0.000000  -0.004850
    30  C   -0.059004   0.022800   0.014216  -0.000372   0.002869  -0.000000
    31  C    0.007261  -0.055728  -0.001374   0.000073  -0.040126   0.000003
    32  H    0.002052   0.001234   0.000016  -0.000000  -0.005380  -0.000000
    33  O   -0.000099  -0.000842   0.000659   0.000013  -0.000000  -0.000000
    34  H    0.000001   0.000012  -0.000024  -0.000001   0.000000   0.000000
    35  O    0.000201   0.002423  -0.000047   0.000000  -0.000056   0.000000
    36  H   -0.000118   0.000134   0.000006  -0.000000  -0.000015  -0.000000
              25         26         27         28         29         30
     1  C   -0.000000  -0.000001   0.000630  -0.000013  -0.000000   0.000057
     2  C    0.000000  -0.000022  -0.022534   0.000094  -0.000001  -0.000887
     3  C   -0.000000   0.000047  -0.049669   0.001143  -0.000001  -0.003191
     4  C    0.000000   0.000000   0.008609   0.000035  -0.000000   0.000053
     5  C   -0.000000  -0.000000  -0.000082  -0.000004   0.000000  -0.000006
     6  C    0.000000   0.000000  -0.000001  -0.000001   0.000000  -0.000001
     7  H   -0.000000  -0.000000  -0.000010  -0.000000   0.000000  -0.000000
     8  H    0.000000  -0.000048   0.015374   0.000003  -0.000000   0.001923
     9  C    0.000001  -0.000839   0.261093   0.015374  -0.000010  -0.085191
    10  C   -0.000000   0.000000  -0.000839  -0.000048  -0.000000   0.000010
    11  H    0.000000  -0.000000   0.000001   0.000000  -0.000000   0.000000
    12  H   -0.000000  -0.000000   0.000000  -0.000000   0.000000   0.000000
    13  C    0.000000  -0.000000   0.008510   0.000252  -0.000000   0.000228
    14  C    0.000000   0.000010  -0.085191   0.001923  -0.000000  -0.002832
    15  H    0.000000  -0.000000   0.000011  -0.000000  -0.000000   0.000000
    16  H   -0.000000   0.000000  -0.000185  -0.000000  -0.000000  -0.000002
    17  C   -0.045812   0.008464  -0.000646   0.004452  -0.042473   0.000058
    18  C    0.353541  -0.093992   0.015328   0.000434   0.004372  -0.000965
    19  C   -0.043042   0.426176  -0.011933   0.005551   0.001038  -0.059004
    20  C    0.004356  -0.018061   0.413993  -0.031889   0.002698   0.022800
    21  C    0.000488   0.016824  -0.098860   0.348009  -0.036975   0.014216
    22  C    0.004691  -0.000786   0.008579  -0.047214   0.356718  -0.000372
    23  H    0.006663   0.349476   0.000786   0.000002  -0.000000   0.002869
    24  H   -0.005485  -0.000193   0.000012  -0.000179  -0.004850  -0.000000
    25  H    0.608805  -0.008668  -0.000169   0.000019  -0.000194   0.000007
    26  C   -0.008668   5.146667  -0.068291  -0.000185   0.000010   0.014197
    27  C   -0.000169  -0.068291   5.327012  -0.016517  -0.000199   0.444573
    28  H    0.000019  -0.000185  -0.016517   0.584328  -0.005333   0.000175
    29  H   -0.000194   0.000010  -0.000199  -0.005333   0.599083   0.000003
    30  C    0.000007   0.014197   0.444573   0.000175   0.000003   4.687159
    31  C    0.000279   0.446440  -0.043993   0.000014  -0.000001   0.408909
    32  H   -0.000012  -0.028114   0.003971   0.000000  -0.000000  -0.040521
    33  O    0.000000  -0.000002  -0.002928  -0.000374  -0.000000   0.001373
    34  H   -0.000000  -0.000000  -0.000107   0.000003  -0.000000  -0.000052
    35  O   -0.000000   0.004788  -0.057232  -0.000001  -0.000000   0.297451
    36  H   -0.000000   0.000872   0.007742   0.000000   0.000000  -0.032879
              31         32         33         34         35         36
     1  C   -0.000004   0.000000   0.000000  -0.000000   0.000013  -0.000001
     2  C   -0.000186   0.000002  -0.000047   0.000006   0.000659  -0.000024
     3  C    0.000095  -0.000001   0.002423   0.000134  -0.000842   0.000012
     4  C    0.000004  -0.000000   0.000201  -0.000118  -0.000099   0.000001
     5  C   -0.000000   0.000000   0.000000  -0.000001   0.000001   0.000000
     6  C    0.000000  -0.000000  -0.000000   0.000000  -0.000000   0.000000
     7  H   -0.000000  -0.000000  -0.000000   0.000000  -0.000000  -0.000000
     8  H    0.000252  -0.000000  -0.000001   0.000000  -0.000374   0.000003
     9  C    0.008510  -0.000185  -0.057232   0.007742  -0.002928  -0.000107
    10  C   -0.000000   0.000000   0.004788   0.000872  -0.000002  -0.000000
    11  H    0.000000  -0.000000  -0.000000  -0.000000   0.000000  -0.000000
    12  H    0.000000   0.000000   0.000000  -0.000000  -0.000000   0.000000
    13  C    0.000005  -0.000000  -0.064883  -0.006763   0.000046  -0.000002
    14  C    0.000228  -0.000002   0.297451  -0.032879   0.001373  -0.000052
    15  H    0.000000  -0.000000  -0.000056  -0.000015  -0.000000   0.000000
    16  H   -0.000000   0.000000  -0.005185   0.007696   0.000002  -0.000000
    17  C   -0.000404   0.000004  -0.000000   0.000000  -0.000000   0.000000
    18  C    0.009316  -0.000207   0.000001   0.000000   0.000000  -0.000001
    19  C    0.007261   0.002052  -0.000099   0.000001   0.000201  -0.000118
    20  C   -0.055728   0.001234  -0.000842   0.000012   0.002423   0.000134
    21  C   -0.001374   0.000016   0.000659  -0.000024  -0.000047   0.000006
    22  C    0.000073  -0.000000   0.000013  -0.000001   0.000000  -0.000000
    23  H   -0.040126  -0.005380  -0.000000   0.000000  -0.000056  -0.000015
    24  H    0.000003  -0.000000  -0.000000   0.000000   0.000000  -0.000000
    25  H    0.000279  -0.000012   0.000000  -0.000000  -0.000000  -0.000000
    26  C    0.446440  -0.028114  -0.000002  -0.000000   0.004788   0.000872
    27  C   -0.043993   0.003971  -0.002928  -0.000107  -0.057232   0.007742
    28  H    0.000014   0.000000  -0.000374   0.000003  -0.000001   0.000000
    29  H   -0.000001  -0.000000  -0.000000  -0.000000  -0.000000   0.000000
    30  C    0.408909  -0.040521   0.001373  -0.000052   0.297451  -0.032879
    31  C    5.189353   0.338735   0.000046  -0.000002  -0.064883  -0.006763
    32  H    0.338735   0.607234   0.000002  -0.000000  -0.005185   0.007696
    33  O    0.000046   0.000002   8.222395   0.244127  -0.000382  -0.000008
    34  H   -0.000002  -0.000000   0.244127   0.373317  -0.000008   0.000000
    35  O   -0.064883  -0.005185  -0.000382  -0.000008   8.222395   0.244127
    36  H   -0.006763   0.007696  -0.000008   0.000000   0.244127   0.373317
 Mulliken charges:
               1
     1  C   -0.133541
     2  C   -0.191919
     3  C    0.114925
     4  C    0.131778
     5  C   -0.195494
     6  C   -0.137337
     7  H    0.126114
     8  H    0.139947
     9  C   -0.056841
    10  C   -0.194768
    11  H    0.124534
    12  H    0.124651
    13  C   -0.196060
    14  C    0.329847
    15  H    0.130886
    16  H    0.118661
    17  C   -0.137337
    18  C   -0.195494
    19  C    0.131778
    20  C    0.114925
    21  C   -0.191919
    22  C   -0.133541
    23  H    0.130886
    24  H    0.124651
    25  H    0.124534
    26  C   -0.194768
    27  C   -0.056841
    28  H    0.139947
    29  H    0.126114
    30  C    0.329847
    31  C   -0.196060
    32  H    0.118661
    33  O   -0.641440
    34  H    0.406058
    35  O   -0.641440
    36  H    0.406058
 Sum of Mulliken charges =  -0.00000
 Mulliken charges with hydrogens summed into heavy atoms:
               1
     1  C   -0.007427
     2  C   -0.051973
     3  C    0.114925
     4  C    0.131778
     5  C   -0.070960
     6  C   -0.012687
     9  C   -0.056841
    10  C   -0.063882
    13  C   -0.077399
    14  C    0.329847
    17  C   -0.012687
    18  C   -0.070960
    19  C    0.131778
    20  C    0.114925
    21  C   -0.051973
    22  C   -0.007427
    26  C   -0.063882
    27  C   -0.056841
    30  C    0.329847
    31  C   -0.077399
    33  O   -0.235382
    35  O   -0.235382
 Electronic spatial extent (au):  <R**2>=           5900.1851
 Charge=             -0.0000 electrons
 Dipole moment (field-independent basis, Debye):
    X=              0.0000    Y=              0.0000    Z=              1.5444  Tot=              1.5444
 Quadrupole moment (field-independent basis, Debye-Ang):
   XX=           -109.4920   YY=           -115.6238   ZZ=           -115.5776
   XY=              8.3206   XZ=              0.0000   YZ=             -0.0000
 Traceless Quadrupole moment (field-independent basis, Debye-Ang):
   XX=              4.0725   YY=             -2.0593   ZZ=             -2.0132
   XY=              8.3206   XZ=              0.0000   YZ=             -0.0000
 Octapole moment (field-independent basis, Debye-Ang**2):
  XXX=              0.0000  YYY=              0.0000  ZZZ=             50.4436  XYY=             -0.0000
  XXY=              0.0000  XXZ=             44.7498  XZZ=             -0.0000  YZZ=             -0.0000
  YYZ=            -13.9798  XYZ=             31.0903
 Hexadecapole moment (field-independent basis, Debye-Ang**3):
 XXXX=          -1334.0175 YYYY=          -4622.1434 ZZZZ=          -1537.8189 XXXY=            -70.7072
 XXXZ=             -0.0000 YYYX=              0.9844 YYYZ=             -0.0000 ZZZX=              0.0000
 ZZZY=             -0.0000 XXYY=          -1037.1713 XXZZ=           -342.6910 YYZZ=          -1066.7156
 XXYZ=             -0.0000 YYXZ=             -0.0000 ZZXY=            -49.7912
 N-N= 1.672284881912D+03 E-N=-5.484795987031D+03  KE= 9.123234584083D+02
 Symmetry A    KE= 4.575385674043D+02
 Symmetry B    KE= 4.547848910040D+02
 Unable to Open any file for archive entry.
 1\1\GINC-CCC035\SP\RB3LYP TD-FC\6-31G(d)\C20H14O2\ROOT\20-Feb-2025\0\\
 # td=(nstat=16) b3lyp/6-31g(d)\\binol | No.1\\0,1\C,0,-2.477476,-1.996
 161,1.785574\C,0,-1.476456,-1.181637,1.305771\C,0,-1.714282,-0.280051,
 0.230409\C,0,-3.03071,-0.245625,-0.339964\C,0,-4.040442,-1.098833,0.17
 9509\C,0,-3.775079,-1.958207,1.220519\H,0,-2.270099,-2.676635,2.607468
 \H,0,-0.485241,-1.21934,1.745543\C,0,-0.690133,0.574229,-0.287119\C,0,
 -3.287428,0.644839,-1.413456\H,0,-5.032737,-1.058949,-0.264659\H,0,-4.
 555143,-2.606748,1.609804\C,0,-2.297001,1.460221,-1.902586\C,0,-0.9969
 73,1.426397,-1.337748\H,0,-4.283243,0.67482,-1.848988\H,0,-2.50136,2.1
 41888,-2.726959\C,0,3.775079,-1.958207,-1.220519\C,0,4.040442,-1.09883
 3,-0.179509\C,0,3.03071,-0.245625,0.339964\C,0,1.714282,-0.280051,-0.2
 30409\C,0,1.476456,-1.181637,-1.305771\C,0,2.477476,-1.996161,-1.78557
 4\H,0,4.283243,0.67482,1.848988\H,0,4.555143,-2.606748,-1.609804\H,0,5
 .032737,-1.058949,0.264659\C,0,3.287428,0.644839,1.413456\C,0,0.690133
 ,0.574229,0.287119\H,0,0.485241,-1.21934,-1.745543\H,0,2.270099,-2.676
 635,-2.607468\C,0,0.996973,1.426397,1.337748\C,0,2.297001,1.460221,1.9
 02586\H,0,2.50136,2.141888,2.726959\O,0,-0.006431,2.237605,-1.821145\H
 ,0,-0.367573,2.773086,-2.544075\O,0,0.006431,2.237605,1.821145\H,0,0.3
 67573,2.773086,2.544075\\Version=ES64L-G16RevC.02\State=1-A\HF=-921.01
 57482\RMSD=6.934e-09\PG=C02 [X(C20H14O2)]\\@
 The archive entry for this job was punched.


 FROM WHENCE IT HAPPENS, THAT THEY WHICH TRUST TO BOOKS, DO AS THEY THAT CAST UP MANY LITTLE SUMMS INTO GREATER,
 WITHOUT CONSIDERING WETHER THOSE LITTLE SUMMES WERE RIGHTLY CAST UP OR NOT...
 AND AT LAST FINDING THE ERROUR VISIBLE, AND NOT MISTRUSTING THEIR FIRST GROUNDS,
 KNOW NOT WHICH WAY TO CLEERE THEMSELVES...
 BUT SPEND TIME IN FLUTTERING OVER THEIR BOOKES....
 AS BIRDS THAT ENTERING BY THE CHIMNEY, AND FINDING THEMSELVES INCLOSED IN A CHAMBER,
 FLUTTER AT THE FALSE LIGHT OF A GLASSE WINDOW,
 FOR WANT OF WIT TO CONSIDER WHICH WAY THEY CAME IN....
           LEVIATHAN
 Job cpu time:       0 days  0 hours 27 minutes 25.4 seconds.
 Elapsed time:       0 days  0 hours  3 minutes 40.1 seconds.
 File lengths (MBytes):  RWF=   1290 Int=      0 D2E=      0 Chk=     78 Scr=      1
 Normal termination of Gaussian 16 at Thu Feb 20 09:30:41 2025.
