 Entering Gaussian System, Link 0=/apl/gaussian/16c02/g16/._.g16
 Initial command:
 /apl/gaussian/16c02/g16/l1.exe "/lwork/users/ux8/8279372.ccpbs1/gaussian/Gau-3852823.inp" -scrdir="/lwork/users/ux8/8279372.ccpbs1/gaussian/"
 Default CPUs for threads: 104,105,106,107,108,109,110,111
 Default is to use a total of   8 processors:
                                8 via shared-memory
                                1 via Linda
 Entering Link 1 = /apl/gaussian/16c02/g16/l1.exe PID=   3852897.
  
 Copyright (c) 1988-2021, Gaussian, Inc.  All Rights Reserved.
  
 This is part of the Gaussian(R) 16 program.  It is based on
 the Gaussian(R) 09 system (copyright 2009, Gaussian, Inc.),
 the Gaussian(R) 03 system (copyright 2003, Gaussian, Inc.),
 the Gaussian(R) 98 system (copyright 1998, Gaussian, Inc.),
 the Gaussian(R) 94 system (copyright 1995, Gaussian, Inc.),
 the Gaussian 92(TM) system (copyright 1992, Gaussian, Inc.),
 the Gaussian 90(TM) system (copyright 1990, Gaussian, Inc.),
 the Gaussian 88(TM) system (copyright 1988, Gaussian, Inc.),
 the Gaussian 86(TM) system (copyright 1986, Carnegie Mellon
 University), and the Gaussian 82(TM) system (copyright 1983,
 Carnegie Mellon University). Gaussian is a federally registered
 trademark of Gaussian, Inc.
  
 This software contains proprietary and confidential information,
 including trade secrets, belonging to Gaussian, Inc.
  
 This software is provided under written license and may be
 used, copied, transmitted, or stored only in accord with that
 written license.
  
 The following legend is applicable only to US Government
 contracts under FAR:
  
                    RESTRICTED RIGHTS LEGEND
  
 Use, reproduction and disclosure by the US Government is
 subject to restrictions as set forth in subparagraphs (a)
 and (c) of the Commercial Computer Software - Restricted
 Rights clause in FAR 52.227-19.
  
 Gaussian, Inc.
 340 Quinnipiac St., Bldg. 40, Wallingford CT 06492
  
  
 ---------------------------------------------------------------
 Warning -- This program may not be used in any manner that
 competes with the business of Gaussian, Inc. or will provide
 assistance to any competitor of Gaussian, Inc.  The licensee
 of this program is prohibited from giving any competitor of
 Gaussian, Inc. access to this program.  By using this program,
 the user acknowledges that Gaussian, Inc. is engaged in the
 business of creating and licensing software in the field of
 computational chemistry and represents and warrants to the
 licensee that it is not a competitor of Gaussian, Inc. and that
 it will not use this program in any manner prohibited above.
 ---------------------------------------------------------------
  

 Cite this work as:
 Gaussian 16, Revision C.02,
 M. J. Frisch, G. W. Trucks, H. B. Schlegel, G. E. Scuseria, 
 M. A. Robb, J. R. Cheeseman, G. Scalmani, V. Barone, 
 G. A. Petersson, H. Nakatsuji, X. Li, M. Caricato, A. V. Marenich, 
 J. Bloino, B. G. Janesko, R. Gomperts, B. Mennucci, H. P. Hratchian, 
 J. V. Ortiz, A. F. Izmaylov, J. L. Sonnenberg, D. Williams-Young, 
 F. Ding, F. Lipparini, F. Egidi, J. Goings, B. Peng, A. Petrone, 
 T. Henderson, D. Ranasinghe, V. G. Zakrzewski, J. Gao, N. Rega, 
 G. Zheng, W. Liang, M. Hada, M. Ehara, K. Toyota, R. Fukuda, 
 J. Hasegawa, M. Ishida, T. Nakajima, Y. Honda, O. Kitao, H. Nakai, 
 T. Vreven, K. Throssell, J. A. Montgomery, Jr., J. E. Peralta, 
 F. Ogliaro, M. J. Bearpark, J. J. Heyd, E. N. Brothers, K. N. Kudin, 
 V. N. Staroverov, T. A. Keith, R. Kobayashi, J. Normand, 
 K. Raghavachari, A. P. Rendell, J. C. Burant, S. S. Iyengar, 
 J. Tomasi, M. Cossi, J. M. Millam, M. Klene, C. Adamo, R. Cammi, 
 J. W. Ochterski, R. L. Martin, K. Morokuma, O. Farkas, 
 J. B. Foresman, and D. J. Fox, Gaussian, Inc., Wallingford CT, 2019.
 
 ******************************************
 Gaussian 16:  ES64L-G16RevC.02  7-Dec-2021
                20-Feb-2025 
 ******************************************
 %chk=binol.018.tddft.chk
 %mem=9600MB
 SetSPE:  set environment variable "OMP_PROC_BIND" = "true"
 SetSPE:  set environment variable "OMP_PLACES" = "{104},{105},{106},{107},{108},{109},{110},{111}"
 ------------------------------
 # td=(nstat=16) b3lyp/6-31g(d)
 ------------------------------
 1/38=1,172=1/1;
 2/12=2,17=6,18=5,40=1/2;
 3/5=1,6=6,7=1,11=9,25=1,30=1,74=-5/1,2,3,8;
 4//1;
 5/5=2,38=5/2;
 8/6=1,10=2,108=16/1;
 9/41=16,42=1,70=2/14;
 6/7=2,8=2,9=2,10=2/1;
 99/5=1,9=1/99;
 -------------
 binol | No.18
 -------------
 Symbolic Z-matrix:
 Charge =  0 Multiplicity = 1
 C                    -2.64935  -1.83231   1.83245 
 C                    -1.59837  -1.34753   1.08684 
 C                    -1.75274  -0.20403   0.25397 
 C                    -3.03815   0.43305   0.2193 
 C                    -4.10192  -0.09432   0.99892 
 C                    -3.91753  -1.20442   1.79014 
 H                    -2.50444  -2.70649   2.46206 
 H                    -0.62973  -1.83431   1.13024 
 C                    -0.675     0.3204   -0.52817 
 C                    -3.21076   1.58187  -0.59403 
 H                    -5.06975   0.40087   0.95865 
 H                    -4.73817  -1.59887   2.38311 
 C                    -2.16853   2.08103  -1.3352 
 C                    -0.89971   1.44934  -1.30311 
 H                    -4.18302   2.06775  -0.62352 
 H                    -2.30785   2.96336  -1.95818 
 C                     3.91709   1.20566   1.78971 
 C                     4.10165   0.09496   0.99937 
 C                     3.03806  -0.433     0.21992 
 C                     1.7526    0.20403   0.25392 
 C                     1.59809   1.34827   1.08576 
 C                     2.64893   1.83364   1.8312 
 H                     4.18319  -2.06813  -0.62169 
 H                     4.73759   1.60055   2.38258 
 H                     5.0695   -0.40024   0.95967 
 C                     3.2109   -1.58229  -0.5927 
 C                     0.67501  -0.32107  -0.52795 
 H                     0.62947   1.83515   1.12849 
 H                     2.50392   2.70838   2.46002 
 C                     0.90003  -1.45023  -1.30245 
 C                     2.1689   -2.08186  -1.33393 
 H                     2.30843  -2.96447  -1.95647 
 O                     0.14058   1.94022  -2.045 
 H                    -0.1629    2.72503  -2.52641 
 O                    -0.13997  -1.9414   -2.04457 
 H                     0.16367  -2.72636  -2.52565 
 
                          Input orientation:                          
 ---------------------------------------------------------------------
 Center     Atomic      Atomic             Coordinates (Angstroms)
 Number     Number       Type             X           Y           Z
 ---------------------------------------------------------------------
      1          6           0       -2.649351   -1.832311    1.832450
      2          6           0       -1.598374   -1.347527    1.086838
      3          6           0       -1.752742   -0.204025    0.253969
      4          6           0       -3.038152    0.433045    0.219303
      5          6           0       -4.101920   -0.094321    0.998924
      6          6           0       -3.917530   -1.204415    1.790135
      7          1           0       -2.504443   -2.706494    2.462064
      8          1           0       -0.629733   -1.834312    1.130242
      9          6           0       -0.674998    0.320404   -0.528174
     10          6           0       -3.210761    1.581867   -0.594026
     11          1           0       -5.069750    0.400874    0.958647
     12          1           0       -4.738167   -1.598872    2.383109
     13          6           0       -2.168535    2.081030   -1.335202
     14          6           0       -0.899705    1.449336   -1.303110
     15          1           0       -4.183017    2.067746   -0.623520
     16          1           0       -2.307851    2.963364   -1.958182
     17          6           0        3.917087    1.205656    1.789705
     18          6           0        4.101654    0.094960    0.999374
     19          6           0        3.038059   -0.432997    0.219916
     20          6           0        1.752604    0.204034    0.253924
     21          6           0        1.598094    1.348265    1.085761
     22          6           0        2.648929    1.833643    1.831195
     23          1           0        4.183189   -2.068130   -0.621689
     24          1           0        4.737590    1.600551    2.382575
     25          1           0        5.069504   -0.400239    0.959666
     26          6           0        3.210899   -1.582289   -0.592700
     27          6           0        0.675006   -0.321066   -0.527954
     28          1           0        0.629473    1.835150    1.128492
     29          1           0        2.503916    2.708379    2.460017
     30          6           0        0.900034   -1.450233   -1.302454
     31          6           0        2.168900   -2.081855   -1.333933
     32          1           0        2.308430   -2.964466   -1.956468
     33          8           0        0.140582    1.940217   -2.044996
     34          1           0       -0.162897    2.725027   -2.526414
     35          8           0       -0.139969   -1.941398   -2.044572
     36          1           0        0.163674   -2.726355   -2.525650
 ---------------------------------------------------------------------
                    Distance matrix (angstroms):
                    1          2          3          4          5
     1  C    0.000000
     2  C    1.376774   0.000000
     3  C    2.438611   1.423059   0.000000
     4  C    2.808068   2.448676   1.435040   0.000000
     5  C    2.413572   2.801071   2.466907   1.420396   0.000000
     6  C    1.415741   2.427672   2.836705   2.433535   1.375617
     7  H    1.087018   2.135181   3.420978   3.895064   3.393547
     8  H    2.138213   1.084947   2.164911   3.430918   3.885987
     9  C    3.755635   2.498576   1.431190   2.481110   3.774628
    10  C    4.226059   3.742519   2.456486   1.418129   2.478157
    11  H    3.407195   3.888932   3.444563   2.162188   1.087904
    12  H    2.172757   3.406140   3.923213   3.420642   2.141133
    13  C    5.057612   4.236315   2.814218   2.426638   3.730720
    14  C    4.864381   3.744654   2.426061   2.814879   4.235141
    15  H    4.857403   4.611919   3.440518   2.166406   2.704336
    16  H    6.122419   5.325344   3.903090   3.417206   4.616557
    17  C    7.235273   6.118258   6.040914   7.172060   8.162092
    18  C    7.069969   5.880369   5.909228   7.190246   8.205757
    19  C    6.074947   4.804626   4.796391   6.137619   7.190331
    20  C    5.100554   3.785517   3.529017   4.796351   5.909272
    21  C    5.358582   4.181471   3.785444   4.804493   5.880370
    22  C    6.442902   5.358497   5.100435   6.074764   7.069914
    23  H    7.263746   6.071639   6.283068   7.688362   8.669795
    24  H    8.164195   7.107358   7.064833   8.155059   9.106263
    25  H    7.898943   6.736032   6.861454   8.183922   9.176609
    26  C    6.347156   5.099516   5.220555   6.616008   7.630507
    27  C    4.348186   2.971436   2.553245   3.861945   5.020139
    28  H    4.969559   3.885160   3.255453   4.030384   5.111333
    29  H    6.896946   5.929990   5.609624   6.396285   7.323045
    30  C    4.750973   3.458512   3.318540   4.622963   5.670483
    31  C    5.770944   4.537810   4.628926   5.987542   6.979663
    32  H    6.341709   5.209541   5.385089   6.697985   7.620017
    33  O    6.086894   4.862264   3.669835   4.183655   5.603893
    34  H    6.778752   5.630442   4.340217   4.589034   5.991046
    35  O    4.619545   3.505047   3.301938   4.377508   5.326501
    36  H    5.263598   4.249241   4.214390   5.269560   6.127440
                    6          7          8          9         10
     6  C    0.000000
     7  H    2.168996   0.000000
     8  H    3.412014   2.459469   0.000000
     9  C    4.267745   4.631469   2.719411   0.000000
    10  C    3.734583   5.313060   4.615743   2.832970   0.000000
    11  H    2.143813   4.300790   4.973857   4.640146   2.694694
    12  H    1.086582   2.494511   4.301667   5.354300   4.616644
    13  C    4.860130   6.119841   4.876087   2.445762   1.372859
    14  C    5.071275   5.832893   4.095904   1.387626   2.421021
    15  H    4.074709   5.927209   5.561256   3.920267   1.087304
    16  H    5.831923   7.191976   5.947448   3.419996   2.141192
    17  C    8.196930   7.549373   5.509072   5.219529   7.525286
    18  C    8.162168   7.323123   5.111286   5.020023   7.630284
    19  C    7.172231   6.396510   4.030518   3.861871   6.615885
    20  C    6.041034   5.609769   3.255506   2.553130   5.220386
    21  C    6.118368   5.930100   3.885098   2.971234   5.099151
    22  C    7.235321   6.896962   4.969392   4.347989   6.346736
    23  H    8.496149   7.391986   5.127197   5.414409   8.245832
    24  H    9.117561   8.426387   6.494211   6.277527   8.487449
    25  H    9.061079   8.058578   5.879368   5.977650   8.654796
    26  C    7.525636   6.577276   4.216930   4.327193   7.158883
    27  C    5.219696   4.973869   2.596511   1.494655   4.327205
    28  H    5.509262   5.676828   3.879504   2.596275   4.216470
    29  H    7.549415   7.375942   5.676627   4.973651   6.576758
    30  C    5.730049   5.228791   2.899261   2.493069   5.156950
    31  C    6.897415   6.053090   3.737082   3.808917   6.550654
    32  H    7.476456   6.538633   4.408835   4.661678   7.279207
    33  O    6.408215   6.992973   4.992253   2.364258   3.669500
    34  H    6.940488   7.737517   5.863160   3.168189   3.785553
    35  O    5.433055   5.146443   3.214153   2.775152   4.893592
    36  H    6.131764   5.656548   3.845879   3.738452   5.803340
                   11         12         13         14         15
    11  H    0.000000
    12  H    2.477503   0.000000
    13  C    4.062230   5.828424   0.000000
    14  C    4.858404   6.132991   1.417744   0.000000
    15  H    2.463333   4.774107   2.136541   3.409459   0.000000
    16  H    4.764696   6.750351   1.089048   2.168934   2.469757
    17  C    9.060992   9.117616   6.896819   5.729430   8.495795
    18  C    9.176595   9.106384   6.979254   5.670040   8.669570
    19  C    8.183986   8.155266   5.987265   4.622637   7.688240
    20  C    6.861479   7.064985   4.628581   3.318113   6.282908
    21  C    6.736012   7.107526   4.537125   3.457733   6.071288
    22  C    7.898872   8.164310   5.770202   4.750196   7.263327
    23  H    9.706200   9.425476   7.620304   6.218739   9.332678
    24  H    9.982520  10.001314   7.857944   6.736931   9.425079
    25  H   10.170853   9.982651   7.988262   6.646242   9.706007
    26  C    8.654985   8.487836   6.550536   5.156791   8.245829
    27  C    5.977742   6.277700   3.808863   2.492971   5.414420
    28  H    5.879382   6.494469   3.736187   2.898263   5.126764
    29  H    8.058480   8.426511   6.052194   5.227901   7.391460
    30  C    6.646615   6.737565   4.678355   3.412706   6.218885
    31  C    7.988612   7.858578   6.011901   4.678311   7.620415
    32  H    8.617479   8.387568   6.773937   5.495512   8.320985
    33  O    6.207979   7.479001   2.419847   1.368779   4.553061
    34  H    6.451709   7.983271   2.419980   1.914875   4.496041
    35  O    6.229631   6.392582   4.560506   3.553033   5.868463
    36  H    7.022009   7.028170   5.474241   4.479037   6.745015
                   16         17         18         19         20
    16  H    0.000000
    17  C    7.475697   0.000000
    18  C    7.619490   1.375621   0.000000
    19  C    6.697621   2.433539   1.420397   0.000000
    20  C    5.384664   2.836698   2.466907   1.435047   0.000000
    21  C    5.208699   2.427674   2.801080   2.448690   1.423057
    22  C    6.340766   1.415738   2.413577   2.808077   2.438608
    23  H    8.320802   4.074715   2.704339   2.166398   3.440519
    24  H    8.386756   1.086583   2.141136   3.420646   3.923207
    25  H    8.617020   2.143812   1.087903   2.162191   3.444567
    26  C    7.279018   3.734594   2.478166   1.418129   2.456491
    27  C    4.661595   4.267729   3.774616   2.481100   1.431182
    28  H    4.407754   3.412019   3.885997   3.430931   2.164909
    29  H    6.537477   2.168997   3.393553   3.895074   3.420974
    30  C    5.495484   5.071272   4.235139   2.814877   2.426064
    31  C    6.773863   4.860144   3.730735   2.426647   2.814228
    32  H    7.513270   5.831939   4.616573   3.417212   3.903097
    33  O    2.655031   5.431989   5.325716   4.376910   3.301209
    34  H    2.231708   6.130550   6.126567   5.268924   4.213648
    35  O    5.363195   6.408224   5.603903   4.183664   3.669849
    36  H    6.229234   6.940541   5.991102   4.589086   4.340266
                   21         22         23         24         25
    21  C    0.000000
    22  C    1.376778   0.000000
    23  H    4.611925   4.857409   0.000000
    24  H    3.406143   2.172753   4.774116   0.000000
    25  H    3.888940   3.407195   2.463351   2.477498   0.000000
    26  C    3.742528   4.226070   1.087304   4.616656   2.694716
    27  C    2.498566   3.755626   3.920251   5.354286   4.640139
    28  H    1.084947   2.138223   5.561261   4.301672   4.973866
    29  H    2.135182   1.087018   5.927218   2.494510   4.300791
    30  C    3.744656   4.864384   3.409449   6.132989   4.858411
    31  C    4.236326   5.057627   2.136549   5.828440   4.062257
    32  H    5.325353   6.122433   2.469772   6.750370   4.764727
    33  O    3.503768   4.618227   5.868162   6.391498   6.228965
    34  H    4.247867   5.262099   6.744686   7.026905   7.021258
    35  O    4.862276   6.086909   4.553060   7.479012   6.207997
    36  H    5.630487   6.778803   4.496090   7.983326   6.451776
                   26         27         28         29         30
    26  C    0.000000
    27  C    2.832954   0.000000
    28  H    4.615750   2.719403   0.000000
    29  H    5.313072   4.631460   2.459476   0.000000
    30  C    2.421009   1.387626   4.095906   5.832896   0.000000
    31  C    1.372864   2.445751   4.876095   6.119856   1.417730
    32  H    2.141197   3.419984   5.947452   7.191990   2.168920
    33  O    4.893267   2.774964   3.212644   5.144955   3.552927
    34  H    5.802992   3.738262   3.844225   5.654791   4.478917
    35  O    3.669497   2.364274   4.992263   6.992988   1.368791
    36  H    3.785599   3.168227   5.863195   7.737567   1.914921
                   31         32         33         34         35
    31  C    0.000000
    32  H    1.089046   0.000000
    33  O    4.560345   5.363144   0.000000
    34  H    5.474066   6.229175   0.969427   0.000000
    35  O    2.419837   2.655012   3.891740   4.691292   0.000000
    36  H    2.420021   2.231735   4.691317   5.461155   0.969429
                   36
    36  H    0.000000
 Stoichiometry    C20H14O2
 Framework group  C1[X(C20H14O2)]
 Deg. of freedom   102
 Full point group                 C1      NOp   1
 Largest Abelian subgroup         C1      NOp   1
 Largest concise Abelian subgroup C1      NOp   1
                         Standard orientation:                         
 ---------------------------------------------------------------------
 Center     Atomic      Atomic             Coordinates (Angstroms)
 Number     Number       Type             X           Y           Z
 ---------------------------------------------------------------------
      1          6           0       -2.649351    1.832311   -1.832450
      2          6           0       -1.598374    1.347527   -1.086838
      3          6           0       -1.752742    0.204025   -0.253969
      4          6           0       -3.038152   -0.433045   -0.219303
      5          6           0       -4.101920    0.094321   -0.998924
      6          6           0       -3.917530    1.204415   -1.790135
      7          1           0       -2.504443    2.706494   -2.462064
      8          1           0       -0.629733    1.834312   -1.130242
      9          6           0       -0.674998   -0.320404    0.528174
     10          6           0       -3.210761   -1.581867    0.594026
     11          1           0       -5.069750   -0.400874   -0.958647
     12          1           0       -4.738167    1.598872   -2.383109
     13          6           0       -2.168535   -2.081030    1.335202
     14          6           0       -0.899705   -1.449336    1.303110
     15          1           0       -4.183017   -2.067746    0.623520
     16          1           0       -2.307851   -2.963364    1.958182
     17          6           0        3.917087   -1.205656   -1.789705
     18          6           0        4.101654   -0.094960   -0.999374
     19          6           0        3.038059    0.432997   -0.219916
     20          6           0        1.752604   -0.204034   -0.253924
     21          6           0        1.598094   -1.348265   -1.085761
     22          6           0        2.648929   -1.833643   -1.831195
     23          1           0        4.183189    2.068130    0.621689
     24          1           0        4.737590   -1.600551   -2.382575
     25          1           0        5.069504    0.400239   -0.959666
     26          6           0        3.210899    1.582289    0.592700
     27          6           0        0.675006    0.321066    0.527954
     28          1           0        0.629473   -1.835150   -1.128492
     29          1           0        2.503916   -2.708379   -2.460017
     30          6           0        0.900034    1.450233    1.302454
     31          6           0        2.168900    2.081855    1.333933
     32          1           0        2.308430    2.964466    1.956468
     33          8           0        0.140582   -1.940217    2.044996
     34          1           0       -0.162897   -2.725027    2.526414
     35          8           0       -0.139969    1.941398    2.044572
     36          1           0        0.163674    2.726355    2.525650
 ---------------------------------------------------------------------
 Rotational constants (GHZ):           0.4746351           0.2160550           0.2092211
 Standard basis: 6-31G(d) (6D, 7F)
 There are   358 symmetry adapted cartesian basis functions of A   symmetry.
 There are   358 symmetry adapted basis functions of A   symmetry.
   358 basis functions,   672 primitive gaussians,   358 cartesian basis functions
    75 alpha electrons       75 beta electrons
       nuclear repulsion energy      1672.2095654511 Hartrees.
 NAtoms=   36 NActive=   36 NUniq=   36 SFac= 1.00D+00 NAtFMM=   60 NAOKFM=F Big=F
 Integral buffers will be    131072 words long.
 Regular integral format.
 Two-electron integral symmetry is turned on.
 One-electron integrals computed using PRISM.
 NBasis=   358 RedAO= T EigKep=  2.32D-04  NBF=   358
 NBsUse=   358 1.00D-06 EigRej= -1.00D+00 NBFU=   358
 ExpMin= 1.61D-01 ExpMax= 5.48D+03 ExpMxC= 8.25D+02 IAcc=3 IRadAn=         5 AccDes= 0.00D+00
 Harris functional with IExCor=  402 and IRadAn=       5 diagonalized for initial guess.
 HarFok:  IExCor=  402 AccDes= 0.00D+00 IRadAn=         5 IDoV= 1 UseB2=F ITyADJ=14
 ICtDFT=  3500011 ScaDFX=  1.000000  1.000000  1.000000  1.000000
 FoFCou: FMM=F IPFlag=           0 FMFlag=      100000 FMFlg1=           0
         NFxFlg=           0 DoJE=T BraDBF=F KetDBF=T FulRan=T
         wScrn=  0.000000 ICntrl=       500 IOpCl=  0 I1Cent=   200000004 NGrid=           0
         NMat0=    1 NMatS0=      1 NMatT0=    0 NMatD0=    1 NMtDS0=    0 NMtDT0=    0
 Petite list used in FoFCou.
 Requested convergence on RMS density matrix=1.00D-08 within 128 cycles.
 Requested convergence on MAX density matrix=1.00D-06.
 Requested convergence on             energy=1.00D-06.
 No special actions if energy rises.
 Integral accuracy reduced to 1.0D-05 until final iterations.
 Initial convergence to 1.0D-05 achieved.  Increase integral accuracy.
 SCF Done:  E(RB3LYP) =  -921.015619467     A.U. after   14 cycles
            NFock= 14  Conv=0.66D-08     -V/T= 2.0095
 DoSCS=F DFT=T ScalE2(SS,OS)=  1.000000  1.000000
 ExpMin= 1.61D-01 ExpMax= 5.48D+03 ExpMxC= 8.25D+02 IAcc=3 IRadAn=         5 AccDes= 0.00D+00
 HarFok:  IExCor=  205 AccDes= 0.00D+00 IRadAn=         5 IDoV=-2 UseB2=F ITyADJ=14
 ICtDFT= 12500011 ScaDFX=  1.000000  1.000000  1.000000  1.000000
 GSVD:  LWork=        -660 too small for GESVD, short by        2750 words or        2750 for optimal perf.
 Range of M.O.s used for correlation:    23   358
 NBasis=   358 NAE=    75 NBE=    75 NFC=    22 NFV=     0
 NROrb=    336 NOA=    53 NOB=    53 NVA=   283 NVB=   283
 Orbital symmetries:
       Occupied  (A) (A) (A) (A) (A) (A) (A) (A) (A) (A) (A) (A)
                 (A) (A) (A) (A) (A) (A) (A) (A) (A) (A) (A) (A)
                 (A) (A) (A) (A) (A) (A) (A) (A) (A) (A) (A) (A)
                 (A) (A) (A) (A) (A) (A) (A) (A) (A) (A) (A) (A)
                 (A) (A) (A) (A) (A) (A) (A) (A) (A) (A) (A) (A)
                 (A) (A) (A) (A) (A) (A) (A) (A) (A) (A) (A) (A)
                 (A) (A) (A)
       Virtual   (A) (A) (A) (A) (A) (A) (A) (A) (A) (A) (A) (A)
                 (A) (A) (A) (A) (A) (A) (A) (A) (A) (A) (A) (A)
                 (A) (A) (A) (A) (A) (A) (A) (A) (A) (A) (A) (A)
                 (A) (A) (A) (A) (A) (A) (A) (A) (A) (A) (A) (A)
                 (A) (A) (A) (A) (A) (A) (A) (A) (A) (A) (A) (A)
                 (A) (A) (A) (A) (A) (A) (A) (A) (A) (A) (A) (A)
                 (A) (A) (A) (A) (A) (A) (A) (A) (A) (A) (A) (A)
                 (A) (A) (A) (A) (A) (A) (A) (A) (A) (A) (A) (A)
                 (A) (A) (A) (A) (A) (A) (A) (A) (A) (A) (A) (A)
                 (A) (A) (A) (A) (A) (A) (A) (A) (A) (A) (A) (A)
                 (A) (A) (A) (A) (A) (A) (A) (A) (A) (A) (A) (A)
                 (A) (A) (A) (A) (A) (A) (A) (A) (A) (A) (A) (A)
                 (A) (A) (A) (A) (A) (A) (A) (A) (A) (A) (A) (A)
                 (A) (A) (A) (A) (A) (A) (A) (A) (A) (A) (A) (A)
                 (A) (A) (A) (A) (A) (A) (A) (A) (A) (A) (A) (A)
                 (A) (A) (A) (A) (A) (A) (A) (A) (A) (A) (A) (A)
                 (A) (A) (A) (A) (A) (A) (A) (A) (A) (A) (A) (A)
                 (A) (A) (A) (A) (A) (A) (A) (A) (A) (A) (A) (A)
                 (A) (A) (A) (A) (A) (A) (A) (A) (A) (A) (A) (A)
                 (A) (A) (A) (A) (A) (A) (A) (A) (A) (A) (A) (A)
                 (A) (A) (A) (A) (A) (A) (A) (A) (A) (A) (A) (A)
                 (A) (A) (A) (A) (A) (A) (A) (A) (A) (A) (A) (A)
                 (A) (A) (A) (A) (A) (A) (A) (A) (A) (A) (A) (A)
                 (A) (A) (A) (A) (A) (A) (A)
    64 initial guesses have been made.
 Convergence on wavefunction:    0.001000000000000
 Iteration     1 Dimension    64 NMult     0 NNew     64
 CISAX will form    64 AO SS matrices at one time.
 New state      2 was old state      3
 New state      3 was old state      4
 New state      4 was old state      2
 New state      5 was old state      6
 New state      6 was old state      5
 New state      7 was old state     10
 New state      8 was old state      7
 New state      9 was old state     11
 New state     10 was old state     12
 New state     11 was old state     15
 New state     12 was old state     19
 New state     13 was old state     16
 New state     14 was old state     13
 New state     15 was old state     14
 New state     16 was old state     21
 Iteration     2 Dimension    96 NMult    64 NNew     32
 New state      3 was old state      4
 New state      4 was old state      3
 Iteration     3 Dimension   128 NMult    96 NNew     32
 Iteration     4 Dimension   158 NMult   128 NNew     30
 New state     14 was old state     15
 New state     15 was old state     14
 Iteration     5 Dimension   178 NMult   158 NNew     20
 Iteration     6 Dimension   184 NMult   178 NNew      6
 Iteration     7 Dimension   186 NMult   184 NNew      2
 ***********************************************************************
 Excited states from <AA,BB:AA,BB> singles matrix:
 ***********************************************************************
 
 Ground to excited state transition densities written to RWF  633
 Ground to excited state transition electric dipole moments (Au):
       state          X           Y           Z        Dip. S.      Osc.
         1         0.8812      0.3357     -0.0001      0.8892      0.0829
         2         0.0003      0.0000     -0.0131      0.0002      0.0000
         3        -0.0007     -0.0006     -0.3420      0.1170      0.0118
         4        -0.7622     -0.5267      0.0005      0.8584      0.0872
         5         0.5457      0.1218     -0.0001      0.3127      0.0344
         6         0.0003      0.0001      0.0149      0.0002      0.0000
         7        -0.0001     -0.0002     -0.1395      0.0195      0.0023
         8         0.0620      0.2020     -0.0002      0.0446      0.0052
         9        -0.0004      0.0003     -0.0498      0.0025      0.0003
        10         0.2840     -0.2622     -0.0000      0.1494      0.0180
        11         0.6134     -0.4693      0.0002      0.5964      0.0798
        12        -0.0003     -0.0003     -0.7780      0.6052      0.0823
        13         0.8163     -0.0542      0.0001      0.6692      0.0928
        14        -0.8127      1.0251      0.0162      1.7115      0.2410
        15        -0.0262      0.0332     -0.4927      0.2445      0.0344
        16        -0.0029      0.0020      0.1834      0.0336      0.0048
 Ground to excited state transition velocity dipole moments (Au):
       state          X           Y           Z        Dip. S.      Osc.
         1        -0.1310     -0.0494      0.0000      0.0196      0.0934
         2        -0.0000     -0.0000     -0.0012      0.0000      0.0000
         3         0.0001      0.0001      0.0455      0.0021      0.0091
         4         0.1333      0.0795     -0.0001      0.0241      0.1053
         5        -0.0969     -0.0249      0.0000      0.0100      0.0404
         6        -0.0001     -0.0000      0.0007      0.0000      0.0000
         7         0.0000      0.0000      0.0272      0.0007      0.0028
         8        -0.0150     -0.0375      0.0000      0.0016      0.0062
         9         0.0001     -0.0000      0.0142      0.0002      0.0007
        10        -0.0435      0.0396      0.0000      0.0035      0.0128
        11        -0.1208      0.0865     -0.0000      0.0221      0.0734
        12         0.0001      0.0001      0.1512      0.0229      0.0746
        13        -0.1762      0.0163     -0.0000      0.0313      0.1003
        14         0.1675     -0.2137     -0.0035      0.0737      0.2327
        15         0.0054     -0.0069      0.1063      0.0114      0.0359
        16         0.0006     -0.0004     -0.0428      0.0018      0.0058
 Ground to excited state transition magnetic dipole moments (Au):
       state          X           Y           Z
         1         0.0389      0.0939      0.0001
         2        -0.0000     -0.0001     -0.0006
         3         0.0003      0.0001      0.7784
         4         0.1580     -0.2706     -0.0005
         5         0.0635     -0.1785      0.0001
         6         0.0000      0.0000     -0.0049
         7         0.0001      0.0000      0.2358
         8        -0.0505      0.1719      0.0002
         9        -0.0001      0.0004      0.2284
        10         0.0579     -0.2199      0.0004
        11         0.2225     -0.8269      0.0001
        12        -0.0000      0.0005      1.1150
        13         0.2626     -0.6553      0.0002
        14        -0.1675      1.0145     -0.0199
        15        -0.0053      0.0330      0.5892
        16        -0.0004      0.0023     -0.1305
 Ground to excited state transition velocity quadrupole moments (Au):
       state          XX          YY          ZZ          XY          XZ          YZ
         1         0.0001     -0.0001      0.0001     -0.0000      0.0754     -0.1616
         2         0.0103     -0.0084      0.0004      0.0313      0.0000     -0.0001
         3         0.8626      0.0773     -0.0183      0.4852     -0.0002      0.0001
         4        -0.0007      0.0000     -0.0000     -0.0004      0.0133      0.1143
         5        -0.0004      0.0000      0.0000      0.0000      0.1591     -0.0455
         6         0.6236     -0.0787     -0.0143      0.0844     -0.0000     -0.0000
         7         0.0487      0.0139      0.0026      0.1215     -0.0000      0.0001
         8        -0.0000      0.0000     -0.0000      0.0001     -0.0798     -0.0182
         9        -0.0696     -0.0057     -0.0061     -0.0001     -0.0004      0.0001
        10        -0.0001     -0.0000     -0.0000      0.0001      0.2879      0.0067
        11         0.0002     -0.0001      0.0001      0.0001      0.4562     -0.1060
        12        -0.9095      0.1145     -0.0458      0.5637     -0.0002      0.0001
        13         0.0001     -0.0002      0.0002     -0.0000      0.2007     -0.3575
        14         0.0089     -0.0033      0.0003     -0.0193     -1.0482      0.0255
        15        -0.2658      0.0986     -0.0091      0.5711     -0.0343      0.0007
        16         0.5905     -0.0237     -0.0986      0.0052     -0.0024      0.0001
 <0|del|b> * <b|rxdel|0> + <0|del|b> * <b|delr+rdel|0>
 Rotatory Strengths (R) in cgs (10**-40 erg-esu-cm/Gauss)
       state          XX          YY          ZZ    R(velocity)    E-M Angle
         1        -2.3147     40.6098    -87.5062    -16.4037      133.16
         2        -0.0906      0.0943     -0.0000      0.0012       90.00
         3       134.1552     31.1280      0.0000     55.0944        0.17
         4       -52.3279     84.2317    -33.9117     -0.6693       90.51
         5        17.9846     -3.7474    -21.5866     -2.4498       95.19
         6         0.1137     -0.1278     -0.0000     -0.0047       90.00
         7        19.5139      6.2425     -0.0000      8.5855       90.00
         8       -18.9579      2.0751     -5.9640     -7.6156      141.78
         9         6.3518      6.3553     -0.0000      4.2357       90.00
        10       -39.3824     -5.5057      0.9155    -14.6575      147.07
        11      -195.7307    -24.8052   -126.4918   -115.6759      140.67
        12       439.6601    144.4007      0.0000    194.6869       90.00
        13       -23.7093     28.4034   -198.2583    -64.5214      117.12
        14      -737.6101    -39.8028    -42.0730   -273.1620      151.24
        15       205.6819      3.1667     -0.0398     69.6029        7.73
        16         8.9394      9.6885     -0.0004      6.2092        1.84
 1/2[<0|r|b>*<b|rxdel|0> + (<0|rxdel|b>*<b|r|0>)*]
 Rotatory Strengths (R) in cgs (10**-40 erg-esu-cm/Gauss)
       state          XX          YY          ZZ     R(length)
         1       -24.2579    -22.2979      0.0000    -15.5186
         2         0.0000      0.0000     -0.0058     -0.0019
         3         0.0001      0.0000    188.2492     62.7498
         4        85.1825   -100.8003      0.0002     -5.2059
         5       -24.5149     15.3759      0.0000     -3.0463
         6        -0.0000     -0.0000      0.0517      0.0172
         7         0.0000      0.0000     23.2608      7.7536
         8         2.2139    -24.5553      0.0000     -7.4472
         9        -0.0000     -0.0001      8.0488      2.6829
        10       -11.6278    -40.7748      0.0000    -17.4675
        11       -96.4895   -274.4033     -0.0000   -123.6309
        12        -0.0000      0.0001    613.4293    204.4765
        13      -151.5817    -25.1173     -0.0000    -58.8997
        14       -96.2822   -735.4193      0.2278   -277.1579
        15        -0.0991     -0.7762    205.2752     68.1333
        16        -0.0008     -0.0032     16.9208      5.6389
  1/2[<0|del|b>*<b|r|0> + (<0|r|b>*<b|del|0>)*] (Au)
       state          X           Y           Z        Dip. S.   Osc.(frdel)
         1        -0.1154     -0.0166     -0.0000      0.1320      0.0880
         2        -0.0000     -0.0000      0.0000     -0.0000     -0.0000
         3        -0.0000     -0.0000     -0.0156      0.0156      0.0104
         4        -0.1016     -0.0419     -0.0000      0.1435      0.0956
         5        -0.0529     -0.0030     -0.0000      0.0559      0.0373
         6        -0.0000     -0.0000      0.0000     -0.0000     -0.0000
         7        -0.0000     -0.0000     -0.0038      0.0038      0.0025
         8        -0.0009     -0.0076     -0.0000      0.0085      0.0057
         9        -0.0000     -0.0000     -0.0007      0.0007      0.0005
        10        -0.0124     -0.0104     -0.0000      0.0227      0.0152
        11        -0.0741     -0.0406     -0.0000      0.1147      0.0765
        12        -0.0000     -0.0000     -0.1176      0.1176      0.0784
        13        -0.1438     -0.0009     -0.0000      0.1447      0.0965
        14        -0.1361     -0.2191     -0.0001      0.3552      0.2368
        15        -0.0001     -0.0002     -0.0524      0.0528      0.0352
        16        -0.0000     -0.0000     -0.0078      0.0078      0.0052

 Excitation energies and oscillator strengths:
 
 Excited State   1:      Singlet-A      3.8064 eV  325.72 nm  f=0.0829  <S**2>=0.000
      74 -> 77         0.18068
      75 -> 76         0.67517
 This state for optimization and/or second-order correction.
 Total Energy, E(TD-HF/TD-DFT) =  -920.875736557    
 Copying the excited state density for this state as the 1-particle RhoCI density.
 
 Excited State   2:      Singlet-A      3.8875 eV  318.93 nm  f=0.0000  <S**2>=0.000
      74 -> 76         0.49446
      75 -> 77         0.50165
 
 Excited State   3:      Singlet-A      4.1253 eV  300.54 nm  f=0.0118  <S**2>=0.000
      72 -> 77        -0.11083
      72 -> 79         0.10850
      73 -> 76        -0.10871
      73 -> 78        -0.12373
      74 -> 76        -0.45782
      74 -> 78         0.10027
      75 -> 77         0.46028
      75 -> 79         0.10819
 
 Excited State   4:      Singlet-A      4.1480 eV  298.90 nm  f=0.0872  <S**2>=0.000
      74 -> 77         0.64222
      75 -> 76        -0.13848
      75 -> 78         0.16558
 
 Excited State   5:      Singlet-A      4.4931 eV  275.94 nm  f=0.0344  <S**2>=0.000
      72 -> 76         0.45276
      73 -> 77         0.24408
      74 -> 77        -0.18905
      74 -> 79         0.17950
      75 -> 76         0.11460
      75 -> 78         0.38497
 
 Excited State   6:      Singlet-A      4.5174 eV  274.46 nm  f=0.0000  <S**2>=0.000
      72 -> 77         0.24466
      73 -> 76         0.44818
      74 -> 76        -0.16863
      74 -> 78        -0.26732
      75 -> 77         0.13755
      75 -> 79        -0.33903
 
 Excited State   7:      Singlet-A      4.7885 eV  258.92 nm  f=0.0023  <S**2>=0.000
      72 -> 77         0.53992
      73 -> 76        -0.43566
      75 -> 79        -0.10671
 
 Excited State   8:      Singlet-A      4.7935 eV  258.65 nm  f=0.0052  <S**2>=0.000
      72 -> 76        -0.43529
      73 -> 77         0.53614
      75 -> 78         0.13493
 
 Excited State   9:      Singlet-A      4.8950 eV  253.29 nm  f=0.0003  <S**2>=0.000
      74 -> 78         0.51150
      75 -> 79        -0.48161
 
 Excited State  10:      Singlet-A      4.9150 eV  252.26 nm  f=0.0180  <S**2>=0.000
      73 -> 77         0.16125
      74 -> 79         0.52434
      75 -> 78        -0.43544
 
 Excited State  11:      Singlet-A      5.4579 eV  227.17 nm  f=0.0798  <S**2>=0.000
      70 -> 77         0.15457
      71 -> 76        -0.41344
      73 -> 77         0.11131
      74 -> 79        -0.12190
      74 -> 81         0.12265
      75 -> 80         0.49125
 
 Excited State  12:      Singlet-A      5.5533 eV  223.26 nm  f=0.0823  <S**2>=0.000
      70 -> 76        -0.29196
      71 -> 77         0.36777
      72 -> 77        -0.16489
      73 -> 76        -0.12431
      74 -> 78        -0.15996
      74 -> 80         0.28221
      75 -> 79        -0.12385
      75 -> 81         0.32533
 
 Excited State  13:      Singlet-A      5.6617 eV  218.99 nm  f=0.0928  <S**2>=0.000
      70 -> 77         0.10606
      71 -> 76         0.50657
      72 -> 78         0.12699
      74 -> 81        -0.12504
      75 -> 80         0.39765
 
 Excited State  14:      Singlet-A      5.7477 eV  215.71 nm  f=0.2410  <S**2>=0.000
      72 -> 76        -0.14417
      72 -> 78         0.43591
      73 -> 77        -0.16190
      73 -> 79         0.40531
      74 -> 79         0.19194
      75 -> 78         0.15865
      75 -> 80         0.12298
 
 Excited State  15:      Singlet-A      5.7490 eV  215.66 nm  f=0.0344  <S**2>=0.000
      71 -> 77        -0.10898
      72 -> 79         0.23335
      73 -> 78         0.42488
      74 -> 80        -0.40236
      75 -> 81         0.24394
 
 Excited State  16:      Singlet-A      5.7648 eV  215.07 nm  f=0.0048  <S**2>=0.000
      70 -> 76         0.13589
      71 -> 77         0.16813
      72 -> 79         0.28113
      73 -> 78         0.40971
      74 -> 80         0.31225
      75 -> 81        -0.31072
 SavETr:  write IOETrn=   770 NScale= 10 NData=  16 NLR=1 NState=   16 LETran=     298.

 **********************************************************************

            Population analysis using the SCF Density.

 **********************************************************************

 Orbital symmetries:
       Occupied  (A) (A) (A) (A) (A) (A) (A) (A) (A) (A) (A) (A)
                 (A) (A) (A) (A) (A) (A) (A) (A) (A) (A) (A) (A)
                 (A) (A) (A) (A) (A) (A) (A) (A) (A) (A) (A) (A)
                 (A) (A) (A) (A) (A) (A) (A) (A) (A) (A) (A) (A)
                 (A) (A) (A) (A) (A) (A) (A) (A) (A) (A) (A) (A)
                 (A) (A) (A) (A) (A) (A) (A) (A) (A) (A) (A) (A)
                 (A) (A) (A)
       Virtual   (A) (A) (A) (A) (A) (A) (A) (A) (A) (A) (A) (A)
                 (A) (A) (A) (A) (A) (A) (A) (A) (A) (A) (A) (A)
                 (A) (A) (A) (A) (A) (A) (A) (A) (A) (A) (A) (A)
                 (A) (A) (A) (A) (A) (A) (A) (A) (A) (A) (A) (A)
                 (A) (A) (A) (A) (A) (A) (A) (A) (A) (A) (A) (A)
                 (A) (A) (A) (A) (A) (A) (A) (A) (A) (A) (A) (A)
                 (A) (A) (A) (A) (A) (A) (A) (A) (A) (A) (A) (A)
                 (A) (A) (A) (A) (A) (A) (A) (A) (A) (A) (A) (A)
                 (A) (A) (A) (A) (A) (A) (A) (A) (A) (A) (A) (A)
                 (A) (A) (A) (A) (A) (A) (A) (A) (A) (A) (A) (A)
                 (A) (A) (A) (A) (A) (A) (A) (A) (A) (A) (A) (A)
                 (A) (A) (A) (A) (A) (A) (A) (A) (A) (A) (A) (A)
                 (A) (A) (A) (A) (A) (A) (A) (A) (A) (A) (A) (A)
                 (A) (A) (A) (A) (A) (A) (A) (A) (A) (A) (A) (A)
                 (A) (A) (A) (A) (A) (A) (A) (A) (A) (A) (A) (A)
                 (A) (A) (A) (A) (A) (A) (A) (A) (A) (A) (A) (A)
                 (A) (A) (A) (A) (A) (A) (A) (A) (A) (A) (A) (A)
                 (A) (A) (A) (A) (A) (A) (A) (A) (A) (A) (A) (A)
                 (A) (A) (A) (A) (A) (A) (A) (A) (A) (A) (A) (A)
                 (A) (A) (A) (A) (A) (A) (A) (A) (A) (A) (A) (A)
                 (A) (A) (A) (A) (A) (A) (A) (A) (A) (A) (A) (A)
                 (A) (A) (A) (A) (A) (A) (A) (A) (A) (A) (A) (A)
                 (A) (A) (A) (A) (A) (A) (A) (A) (A) (A) (A) (A)
                 (A) (A) (A) (A) (A) (A) (A)
 The electronic state is 1-A.
 Alpha  occ. eigenvalues --  -19.17468 -19.17468 -10.24579 -10.24579 -10.19210
 Alpha  occ. eigenvalues --  -10.19209 -10.19133 -10.19132 -10.19067 -10.19067
 Alpha  occ. eigenvalues --  -10.18781 -10.18781 -10.18691 -10.18663 -10.18263
 Alpha  occ. eigenvalues --  -10.18263 -10.18126 -10.18126 -10.17999 -10.17999
 Alpha  occ. eigenvalues --  -10.17679 -10.17678  -1.05638  -1.05470  -0.86980
 Alpha  occ. eigenvalues --   -0.85901  -0.81372  -0.80816  -0.78613  -0.75068
 Alpha  occ. eigenvalues --   -0.72930  -0.72896  -0.71989  -0.70226  -0.62940
 Alpha  occ. eigenvalues --   -0.62199  -0.61340  -0.61035  -0.59765  -0.56752
 Alpha  occ. eigenvalues --   -0.54511  -0.54400  -0.51486  -0.49895  -0.49274
 Alpha  occ. eigenvalues --   -0.48717  -0.46385  -0.46253  -0.44117  -0.42946
 Alpha  occ. eigenvalues --   -0.42486  -0.42120  -0.41533  -0.41516  -0.41095
 Alpha  occ. eigenvalues --   -0.39702  -0.39567  -0.39319  -0.38634  -0.36574
 Alpha  occ. eigenvalues --   -0.36021  -0.35757  -0.35196  -0.34128  -0.33961
 Alpha  occ. eigenvalues --   -0.33232  -0.31271  -0.30131  -0.30003  -0.27272
 Alpha  occ. eigenvalues --   -0.26359  -0.22628  -0.22600  -0.20076  -0.19386
 Alpha virt. eigenvalues --   -0.03299  -0.02717   0.00369   0.00850   0.03640
 Alpha virt. eigenvalues --    0.04397   0.07024   0.07073   0.10186   0.10470
 Alpha virt. eigenvalues --    0.11260   0.11271   0.11870   0.11999   0.14423
 Alpha virt. eigenvalues --    0.15414   0.17511   0.17547   0.18776   0.18963
 Alpha virt. eigenvalues --    0.19902   0.19972   0.20668   0.21088   0.22630
 Alpha virt. eigenvalues --    0.24101   0.26345   0.27496   0.27893   0.29424
 Alpha virt. eigenvalues --    0.30895   0.31617   0.32206   0.33195   0.33370
 Alpha virt. eigenvalues --    0.34560   0.36573   0.36662   0.37831   0.39340
 Alpha virt. eigenvalues --    0.41069   0.46492   0.49161   0.49452   0.50152
 Alpha virt. eigenvalues --    0.51277   0.52370   0.52376   0.52564   0.53388
 Alpha virt. eigenvalues --    0.54004   0.54062   0.54939   0.55390   0.55442
 Alpha virt. eigenvalues --    0.55952   0.56659   0.57203   0.57381   0.59288
 Alpha virt. eigenvalues --    0.59687   0.60032   0.60640   0.60676   0.61159
 Alpha virt. eigenvalues --    0.61387   0.61750   0.61908   0.62174   0.62951
 Alpha virt. eigenvalues --    0.62992   0.64074   0.64266   0.64670   0.65707
 Alpha virt. eigenvalues --    0.66536   0.67027   0.67943   0.68595   0.69368
 Alpha virt. eigenvalues --    0.70691   0.73687   0.75536   0.75557   0.75870
 Alpha virt. eigenvalues --    0.79920   0.80307   0.81598   0.81656   0.82737
 Alpha virt. eigenvalues --    0.83556   0.84393   0.84908   0.85252   0.85267
 Alpha virt. eigenvalues --    0.86363   0.86452   0.86718   0.87255   0.88216
 Alpha virt. eigenvalues --    0.88787   0.89198   0.90921   0.91318   0.91914
 Alpha virt. eigenvalues --    0.94565   0.95037   0.96275   0.97470   0.98739
 Alpha virt. eigenvalues --    1.00044   1.00968   1.01468   1.02566   1.03743
 Alpha virt. eigenvalues --    1.04094   1.05157   1.06062   1.07212   1.07528
 Alpha virt. eigenvalues --    1.09012   1.09824   1.12517   1.14398   1.14448
 Alpha virt. eigenvalues --    1.14990   1.18946   1.20059   1.20875   1.22458
 Alpha virt. eigenvalues --    1.24636   1.24651   1.25878   1.26189   1.27111
 Alpha virt. eigenvalues --    1.27980   1.29415   1.31767   1.33253   1.37992
 Alpha virt. eigenvalues --    1.38558   1.40526   1.41237   1.41954   1.42216
 Alpha virt. eigenvalues --    1.43625   1.45591   1.45850   1.46148   1.47171
 Alpha virt. eigenvalues --    1.47295   1.47730   1.48061   1.48356   1.50324
 Alpha virt. eigenvalues --    1.50579   1.51200   1.51321   1.52328   1.53772
 Alpha virt. eigenvalues --    1.61023   1.66332   1.67311   1.70772   1.75220
 Alpha virt. eigenvalues --    1.75829   1.76213   1.77036   1.78144   1.78590
 Alpha virt. eigenvalues --    1.79492   1.80413   1.83066   1.84232   1.85905
 Alpha virt. eigenvalues --    1.86062   1.87233   1.88726   1.90423   1.90727
 Alpha virt. eigenvalues --    1.92171   1.92979   1.93509   1.93533   1.94855
 Alpha virt. eigenvalues --    1.95773   1.96760   1.97896   1.99260   2.01042
 Alpha virt. eigenvalues --    2.02079   2.03397   2.04370   2.04912   2.06705
 Alpha virt. eigenvalues --    2.06894   2.08360   2.08440   2.14708   2.15244
 Alpha virt. eigenvalues --    2.17295   2.17656   2.20400   2.21163   2.22508
 Alpha virt. eigenvalues --    2.22576   2.25964   2.26491   2.28856   2.29685
 Alpha virt. eigenvalues --    2.29938   2.30661   2.32907   2.34795   2.34939
 Alpha virt. eigenvalues --    2.36084   2.36114   2.36238   2.36315   2.37722
 Alpha virt. eigenvalues --    2.39137   2.42129   2.46460   2.48765   2.51025
 Alpha virt. eigenvalues --    2.53734   2.56077   2.58187   2.60197   2.61906
 Alpha virt. eigenvalues --    2.62312   2.63558   2.64599   2.64750   2.65609
 Alpha virt. eigenvalues --    2.66396   2.67476   2.68686   2.69893   2.75245
 Alpha virt. eigenvalues --    2.75635   2.78493   2.79917   2.80512   2.82429
 Alpha virt. eigenvalues --    2.85014   2.87859   2.89501   2.89824   2.91541
 Alpha virt. eigenvalues --    2.92188   2.97586   3.02228   3.04805   3.08604
 Alpha virt. eigenvalues --    3.16361   3.16532   3.37042   3.39335   3.47268
 Alpha virt. eigenvalues --    3.50782   3.99328   4.04974   4.09350   4.09812
 Alpha virt. eigenvalues --    4.10841   4.11498   4.14462   4.14549   4.16773
 Alpha virt. eigenvalues --    4.16981   4.23689   4.29106   4.31543   4.32926
 Alpha virt. eigenvalues --    4.39872   4.44130   4.45843   4.51121   4.62873
 Alpha virt. eigenvalues --    4.64526   4.86248   4.92315
          Condensed to atoms (all electrons):
               1          2          3          4          5          6
     1  C    4.903151   0.512414   0.001912  -0.038708  -0.018695   0.493531
     2  C    0.512414   5.153693   0.443091  -0.051823  -0.071521  -0.019579
     3  C    0.001912   0.443091   4.761339   0.445976  -0.023415  -0.039785
     4  C   -0.038708  -0.051823   0.445976   4.768318   0.447484  -0.005044
     5  C   -0.018695  -0.071521  -0.023415   0.447484   5.101328   0.518036
     6  C    0.493531  -0.019579  -0.039785  -0.005044   0.518036   4.909891
     7  H    0.356679  -0.037075   0.002684   0.001039   0.004377  -0.042504
     8  H   -0.047521   0.346979  -0.031415   0.005640   0.000433   0.004475
     9  C    0.008559  -0.097295   0.415225  -0.012351   0.015265  -0.000660
    10  C   -0.000782   0.016842  -0.018106   0.426067  -0.093947   0.008481
    11  H    0.004692   0.000489   0.004343  -0.043090   0.353581  -0.045806
    12  H   -0.041269   0.004197   0.000986   0.002809  -0.037486   0.356428
    13  C    0.000073  -0.001376  -0.055498   0.006900   0.009322  -0.000405
    14  C   -0.000371   0.014119   0.021855  -0.058869  -0.000943   0.000056
    15  H    0.000017  -0.000202   0.004250  -0.036507  -0.008052   0.000166
    16  H   -0.000000   0.000016   0.001217   0.002049  -0.000206   0.000004
    17  C    0.000000   0.000000  -0.000000   0.000000  -0.000000  -0.000000
    18  C    0.000000   0.000001  -0.000003  -0.000000   0.000000  -0.000000
    19  C   -0.000001  -0.000030  -0.000076   0.000001  -0.000000   0.000000
    20  C    0.000028   0.000105  -0.000662  -0.000076  -0.000003  -0.000000
    21  C   -0.000002   0.000304   0.000107  -0.000030   0.000001   0.000000
    22  C   -0.000000  -0.000002   0.000028  -0.000001   0.000000   0.000000
    23  H    0.000000  -0.000000   0.000000   0.000000  -0.000000  -0.000000
    24  H   -0.000000  -0.000000   0.000000   0.000000   0.000000   0.000000
    25  H   -0.000000  -0.000000  -0.000000   0.000000  -0.000000   0.000000
    26  C   -0.000000  -0.000026   0.000040   0.000000  -0.000000   0.000000
    27  C    0.000693  -0.023931  -0.049099   0.008804  -0.000089  -0.000003
    28  H   -0.000001   0.000003   0.000577  -0.000020  -0.000003   0.000000
    29  H   -0.000000  -0.000000  -0.000000   0.000000   0.000000   0.000000
    30  C    0.000071  -0.001611  -0.004535   0.000049  -0.000010  -0.000001
    31  C   -0.000008  -0.000356   0.000209   0.000005  -0.000000   0.000000
    32  H    0.000000   0.000003  -0.000001  -0.000000   0.000000  -0.000000
    33  O    0.000000  -0.000048   0.002374   0.000203   0.000000  -0.000000
    34  H   -0.000000   0.000006   0.000138  -0.000118  -0.000001   0.000000
    35  O    0.000018   0.002056  -0.001433  -0.000206   0.000002   0.000000
    36  H   -0.000000  -0.000036   0.000021   0.000003  -0.000000   0.000000
               7          8          9         10         11         12
     1  C    0.356679  -0.047521   0.008559  -0.000782   0.004692  -0.041269
     2  C   -0.037075   0.346979  -0.097295   0.016842   0.000489   0.004197
     3  C    0.002684  -0.031415   0.415225  -0.018106   0.004343   0.000986
     4  C    0.001039   0.005640  -0.012351   0.426067  -0.043090   0.002809
     5  C    0.004377   0.000433   0.015265  -0.093947   0.353581  -0.037486
     6  C   -0.042504   0.004475  -0.000660   0.008481  -0.045806   0.356428
     7  H    0.599860  -0.005367  -0.000198   0.000010  -0.000194  -0.004847
     8  H   -0.005367   0.587064  -0.016744  -0.000184   0.000019  -0.000180
     9  C   -0.000198  -0.016744   5.325778  -0.067988  -0.000168   0.000012
    10  C    0.000010  -0.000184  -0.067988   5.146888  -0.008689  -0.000193
    11  H   -0.000194   0.000019  -0.000168  -0.008689   0.608931  -0.005483
    12  H   -0.004847  -0.000180   0.000012  -0.000193  -0.005483   0.600511
    13  C   -0.000001   0.000013  -0.044584   0.446788   0.000283   0.000003
    14  C    0.000003   0.000150   0.443990   0.013852   0.000007  -0.000000
    15  H   -0.000000   0.000002   0.000792   0.349403   0.006673  -0.000012
    16  H   -0.000000   0.000000   0.003996  -0.028016  -0.000012  -0.000000
    17  C    0.000000   0.000000  -0.000003   0.000000   0.000000   0.000000
    18  C    0.000000  -0.000003  -0.000089  -0.000000  -0.000000   0.000000
    19  C    0.000000  -0.000020   0.008807   0.000000   0.000000   0.000000
    20  C   -0.000000   0.000578  -0.049105   0.000040  -0.000000   0.000000
    21  C   -0.000000   0.000003  -0.023945  -0.000026  -0.000000  -0.000000
    22  C   -0.000000  -0.000001   0.000694  -0.000000  -0.000000  -0.000000
    23  H   -0.000000  -0.000000   0.000012  -0.000000   0.000000   0.000000
    24  H   -0.000000  -0.000000   0.000000  -0.000000  -0.000000   0.000000
    25  H   -0.000000   0.000000   0.000001  -0.000000   0.000000  -0.000000
    26  C   -0.000000  -0.000042  -0.000833   0.000000  -0.000000  -0.000000
    27  C   -0.000009   0.015302   0.254650  -0.000833   0.000001   0.000000
    28  H   -0.000000  -0.000005   0.015303  -0.000042   0.000000  -0.000000
    29  H    0.000000  -0.000000  -0.000009  -0.000000  -0.000000  -0.000000
    30  C   -0.000000   0.003125  -0.081109   0.000019   0.000000   0.000000
    31  C   -0.000000   0.000422   0.008448  -0.000000   0.000000   0.000000
    32  H    0.000000   0.000001  -0.000177   0.000000  -0.000000   0.000000
    33  O   -0.000000  -0.000001  -0.059054   0.004784  -0.000000   0.000000
    34  H    0.000000   0.000000   0.007735   0.000870  -0.000000  -0.000000
    35  O   -0.000000  -0.000865  -0.001261   0.000003   0.000000  -0.000000
    36  H   -0.000000   0.000016  -0.000190  -0.000000  -0.000000  -0.000000
              13         14         15         16         17         18
     1  C    0.000073  -0.000371   0.000017  -0.000000   0.000000   0.000000
     2  C   -0.001376   0.014119  -0.000202   0.000016   0.000000   0.000001
     3  C   -0.055498   0.021855   0.004250   0.001217  -0.000000  -0.000003
     4  C    0.006900  -0.058869  -0.036507   0.002049   0.000000  -0.000000
     5  C    0.009322  -0.000943  -0.008052  -0.000206  -0.000000   0.000000
     6  C   -0.000405   0.000056   0.000166   0.000004  -0.000000  -0.000000
     7  H   -0.000001   0.000003  -0.000000  -0.000000   0.000000   0.000000
     8  H    0.000013   0.000150   0.000002   0.000000   0.000000  -0.000003
     9  C   -0.044584   0.443990   0.000792   0.003996  -0.000003  -0.000089
    10  C    0.446788   0.013852   0.349403  -0.028016   0.000000  -0.000000
    11  H    0.000283   0.000007   0.006673  -0.000012   0.000000  -0.000000
    12  H    0.000003  -0.000000  -0.000012  -0.000000   0.000000   0.000000
    13  C    5.188775   0.409130  -0.040118   0.338883   0.000000  -0.000000
    14  C    0.409130   4.691869   0.002869  -0.040632  -0.000001  -0.000010
    15  H   -0.040118   0.002869   0.595177  -0.005373  -0.000000  -0.000000
    16  H    0.338883  -0.040632  -0.005373   0.606965  -0.000000   0.000000
    17  C    0.000000  -0.000001  -0.000000  -0.000000   4.909889   0.518037
    18  C   -0.000000  -0.000010  -0.000000   0.000000   0.518037   5.101339
    19  C    0.000005   0.000049   0.000000  -0.000000  -0.005045   0.447477
    20  C    0.000210  -0.004545   0.000000  -0.000001  -0.039785  -0.023415
    21  C   -0.000357  -0.001618  -0.000000   0.000003  -0.019580  -0.071519
    22  C   -0.000008   0.000071   0.000000   0.000000   0.493530  -0.018695
    23  H    0.000000   0.000000  -0.000000  -0.000000   0.000166  -0.008052
    24  H    0.000000   0.000000   0.000000   0.000000   0.356428  -0.037487
    25  H    0.000000   0.000000   0.000000  -0.000000  -0.045806   0.353580
    26  C   -0.000000   0.000019  -0.000000   0.000000   0.008480  -0.093947
    27  C    0.008448  -0.081121   0.000011  -0.000177  -0.000660   0.015265
    28  H    0.000424   0.003130  -0.000000   0.000001   0.004475   0.000433
    29  H   -0.000000  -0.000000  -0.000000   0.000000  -0.042505   0.004377
    30  C    0.000142  -0.001728   0.000000  -0.000001   0.000056  -0.000943
    31  C    0.000005   0.000142   0.000000  -0.000000  -0.000405   0.009322
    32  H   -0.000000  -0.000001  -0.000000   0.000000   0.000004  -0.000206
    33  O   -0.064721   0.296918  -0.000056  -0.005182   0.000000   0.000002
    34  H   -0.006771  -0.032676  -0.000015   0.007735   0.000000  -0.000000
    35  O    0.000018   0.000288   0.000000   0.000001  -0.000000   0.000000
    36  H   -0.000001  -0.000027   0.000000  -0.000000   0.000000  -0.000001
              19         20         21         22         23         24
     1  C   -0.000001   0.000028  -0.000002  -0.000000   0.000000  -0.000000
     2  C   -0.000030   0.000105   0.000304  -0.000002  -0.000000  -0.000000
     3  C   -0.000076  -0.000662   0.000107   0.000028   0.000000   0.000000
     4  C    0.000001  -0.000076  -0.000030  -0.000001   0.000000   0.000000
     5  C   -0.000000  -0.000003   0.000001   0.000000  -0.000000   0.000000
     6  C    0.000000  -0.000000   0.000000   0.000000  -0.000000   0.000000
     7  H    0.000000  -0.000000  -0.000000  -0.000000  -0.000000  -0.000000
     8  H   -0.000020   0.000578   0.000003  -0.000001  -0.000000  -0.000000
     9  C    0.008807  -0.049105  -0.023945   0.000694   0.000012   0.000000
    10  C    0.000000   0.000040  -0.000026  -0.000000  -0.000000  -0.000000
    11  H    0.000000  -0.000000  -0.000000  -0.000000   0.000000  -0.000000
    12  H    0.000000   0.000000  -0.000000  -0.000000   0.000000   0.000000
    13  C    0.000005   0.000210  -0.000357  -0.000008   0.000000   0.000000
    14  C    0.000049  -0.004545  -0.001618   0.000071   0.000000   0.000000
    15  H    0.000000   0.000000  -0.000000   0.000000  -0.000000   0.000000
    16  H   -0.000000  -0.000001   0.000003   0.000000  -0.000000   0.000000
    17  C   -0.005045  -0.039785  -0.019580   0.493530   0.000166   0.356428
    18  C    0.447477  -0.023415  -0.071519  -0.018695  -0.008052  -0.037487
    19  C    4.768342   0.445961  -0.051830  -0.038708  -0.036507   0.002810
    20  C    0.445961   4.761328   0.443101   0.001914   0.004250   0.000986
    21  C   -0.051830   0.443101   5.153675   0.512414  -0.000202   0.004197
    22  C   -0.038708   0.001914   0.512414   4.903163   0.000017  -0.041269
    23  H   -0.036507   0.004250  -0.000202   0.000017   0.595178  -0.000012
    24  H    0.002810   0.000986   0.004197  -0.041269  -0.000012   0.600514
    25  H   -0.043090   0.004343   0.000489   0.004692   0.006673  -0.005483
    26  C    0.426066  -0.018107   0.016842  -0.000782   0.349402  -0.000193
    27  C   -0.012354   0.415250  -0.097289   0.008560   0.000792   0.000012
    28  H    0.005640  -0.031407   0.346971  -0.047522   0.000002  -0.000180
    29  H    0.001039   0.002684  -0.037075   0.356678  -0.000000  -0.004847
    30  C   -0.058875   0.021856   0.014120  -0.000371   0.002869  -0.000000
    31  C    0.006905  -0.055499  -0.001376   0.000073  -0.040118   0.000003
    32  H    0.002049   0.001217   0.000016  -0.000000  -0.005372  -0.000000
    33  O   -0.000206  -0.001441   0.002065   0.000018   0.000000  -0.000000
    34  H    0.000003   0.000022  -0.000036  -0.000000   0.000000  -0.000000
    35  O    0.000203   0.002373  -0.000048   0.000000  -0.000056   0.000000
    36  H   -0.000118   0.000138   0.000006  -0.000000  -0.000015  -0.000000
              25         26         27         28         29         30
     1  C   -0.000000  -0.000000   0.000693  -0.000001  -0.000000   0.000071
     2  C   -0.000000  -0.000026  -0.023931   0.000003  -0.000000  -0.001611
     3  C   -0.000000   0.000040  -0.049099   0.000577  -0.000000  -0.004535
     4  C    0.000000   0.000000   0.008804  -0.000020   0.000000   0.000049
     5  C   -0.000000  -0.000000  -0.000089  -0.000003   0.000000  -0.000010
     6  C    0.000000   0.000000  -0.000003   0.000000   0.000000  -0.000001
     7  H   -0.000000  -0.000000  -0.000009  -0.000000   0.000000  -0.000000
     8  H    0.000000  -0.000042   0.015302  -0.000005  -0.000000   0.003125
     9  C    0.000001  -0.000833   0.254650   0.015303  -0.000009  -0.081109
    10  C   -0.000000   0.000000  -0.000833  -0.000042  -0.000000   0.000019
    11  H    0.000000  -0.000000   0.000001   0.000000  -0.000000   0.000000
    12  H   -0.000000  -0.000000   0.000000  -0.000000  -0.000000   0.000000
    13  C    0.000000  -0.000000   0.008448   0.000424  -0.000000   0.000142
    14  C    0.000000   0.000019  -0.081121   0.003130  -0.000000  -0.001728
    15  H    0.000000  -0.000000   0.000011  -0.000000  -0.000000   0.000000
    16  H   -0.000000   0.000000  -0.000177   0.000001   0.000000  -0.000001
    17  C   -0.045806   0.008480  -0.000660   0.004475  -0.042505   0.000056
    18  C    0.353580  -0.093947   0.015265   0.000433   0.004377  -0.000943
    19  C   -0.043090   0.426066  -0.012354   0.005640   0.001039  -0.058875
    20  C    0.004343  -0.018107   0.415250  -0.031407   0.002684   0.021856
    21  C    0.000489   0.016842  -0.097289   0.346971  -0.037075   0.014120
    22  C    0.004692  -0.000782   0.008560  -0.047522   0.356678  -0.000371
    23  H    0.006673   0.349402   0.000792   0.000002  -0.000000   0.002869
    24  H   -0.005483  -0.000193   0.000012  -0.000180  -0.004847  -0.000000
    25  H    0.608932  -0.008688  -0.000168   0.000019  -0.000194   0.000007
    26  C   -0.008688   5.146903  -0.067990  -0.000184   0.000010   0.013858
    27  C   -0.000168  -0.067990   5.325766  -0.016749  -0.000198   0.443983
    28  H    0.000019  -0.000184  -0.016749   0.587065  -0.005367   0.000149
    29  H   -0.000194   0.000010  -0.000198  -0.005367   0.599864   0.000003
    30  C    0.000007   0.013858   0.443983   0.000149   0.000003   4.691844
    31  C    0.000283   0.446774  -0.044584   0.000013  -0.000001   0.409119
    32  H   -0.000012  -0.028017   0.003996   0.000000  -0.000000  -0.040631
    33  O    0.000000   0.000003  -0.001266  -0.000868  -0.000000   0.000288
    34  H   -0.000000  -0.000000  -0.000189   0.000017  -0.000000  -0.000027
    35  O   -0.000000   0.004784  -0.059052  -0.000001  -0.000000   0.296946
    36  H   -0.000000   0.000870   0.007735   0.000000   0.000000  -0.032675
              31         32         33         34         35         36
     1  C   -0.000008   0.000000   0.000000  -0.000000   0.000018  -0.000000
     2  C   -0.000356   0.000003  -0.000048   0.000006   0.002056  -0.000036
     3  C    0.000209  -0.000001   0.002374   0.000138  -0.001433   0.000021
     4  C    0.000005  -0.000000   0.000203  -0.000118  -0.000206   0.000003
     5  C   -0.000000   0.000000   0.000000  -0.000001   0.000002  -0.000000
     6  C    0.000000  -0.000000  -0.000000   0.000000   0.000000   0.000000
     7  H   -0.000000   0.000000  -0.000000   0.000000  -0.000000  -0.000000
     8  H    0.000422   0.000001  -0.000001   0.000000  -0.000865   0.000016
     9  C    0.008448  -0.000177  -0.059054   0.007735  -0.001261  -0.000190
    10  C   -0.000000   0.000000   0.004784   0.000870   0.000003  -0.000000
    11  H    0.000000  -0.000000  -0.000000  -0.000000   0.000000  -0.000000
    12  H    0.000000   0.000000   0.000000  -0.000000  -0.000000  -0.000000
    13  C    0.000005  -0.000000  -0.064721  -0.006771   0.000018  -0.000001
    14  C    0.000142  -0.000001   0.296918  -0.032676   0.000288  -0.000027
    15  H    0.000000  -0.000000  -0.000056  -0.000015   0.000000   0.000000
    16  H   -0.000000   0.000000  -0.005182   0.007735   0.000001  -0.000000
    17  C   -0.000405   0.000004   0.000000   0.000000  -0.000000   0.000000
    18  C    0.009322  -0.000206   0.000002  -0.000000   0.000000  -0.000001
    19  C    0.006905   0.002049  -0.000206   0.000003   0.000203  -0.000118
    20  C   -0.055499   0.001217  -0.001441   0.000022   0.002373   0.000138
    21  C   -0.001376   0.000016   0.002065  -0.000036  -0.000048   0.000006
    22  C    0.000073  -0.000000   0.000018  -0.000000   0.000000  -0.000000
    23  H   -0.040118  -0.005372   0.000000   0.000000  -0.000056  -0.000015
    24  H    0.000003  -0.000000  -0.000000  -0.000000   0.000000  -0.000000
    25  H    0.000283  -0.000012   0.000000  -0.000000  -0.000000  -0.000000
    26  C    0.446774  -0.028017   0.000003  -0.000000   0.004784   0.000870
    27  C   -0.044584   0.003996  -0.001266  -0.000189  -0.059052   0.007735
    28  H    0.000013   0.000000  -0.000868   0.000017  -0.000001   0.000000
    29  H   -0.000001  -0.000000  -0.000000  -0.000000  -0.000000   0.000000
    30  C    0.409119  -0.040631   0.000288  -0.000027   0.296946  -0.032675
    31  C    5.188797   0.338886   0.000018  -0.000001  -0.064723  -0.006772
    32  H    0.338886   0.606962   0.000001  -0.000000  -0.005182   0.007735
    33  O    0.000018   0.000001   8.223124   0.243994  -0.000147  -0.000003
    34  H   -0.000001  -0.000000   0.243994   0.373069  -0.000003   0.000000
    35  O   -0.064723  -0.005182  -0.000147  -0.000003   8.223095   0.243994
    36  H   -0.006772   0.007735  -0.000003   0.000000   0.243994   0.373071
 Mulliken charges:
               1
     1  C   -0.134479
     2  C   -0.189406
     3  C    0.117656
     4  C    0.131496
     5  C   -0.195457
     6  C   -0.137280
     7  H    0.125543
     8  H    0.138125
     9  C   -0.053505
    10  C   -0.195239
    11  H    0.124424
    12  H    0.124523
    13  C   -0.195581
    14  C    0.324026
    15  H    0.130973
    16  H    0.118731
    17  C   -0.137277
    18  C   -0.195462
    19  C    0.131503
    20  C    0.117660
    21  C   -0.189381
    22  C   -0.134492
    23  H    0.130972
    24  H    0.124521
    25  H    0.124423
    26  C   -0.195240
    27  C   -0.053507
    28  H    0.138125
    29  H    0.125541
    30  C    0.324016
    31  C   -0.195579
    32  H    0.118732
    33  O   -0.640798
    34  H    0.406249
    35  O   -0.640804
    36  H    0.406249
 Sum of Mulliken charges =  -0.00000
 Mulliken charges with hydrogens summed into heavy atoms:
               1
     1  C   -0.008936
     2  C   -0.051281
     3  C    0.117656
     4  C    0.131496
     5  C   -0.071033
     6  C   -0.012757
     9  C   -0.053505
    10  C   -0.064266
    13  C   -0.076850
    14  C    0.324026
    17  C   -0.012755
    18  C   -0.071039
    19  C    0.131503
    20  C    0.117660
    21  C   -0.051256
    22  C   -0.008952
    26  C   -0.064268
    27  C   -0.053507
    30  C    0.324016
    31  C   -0.076847
    33  O   -0.234549
    35  O   -0.234555
 Electronic spatial extent (au):  <R**2>=           5931.4448
 Charge=             -0.0000 electrons
 Dipole moment (field-independent basis, Debye):
    X=              0.0003    Y=             -0.0000    Z=              1.3769  Tot=              1.3769
 Quadrupole moment (field-independent basis, Debye-Ang):
   XX=           -115.4047   YY=           -107.2018   ZZ=           -118.4949
   XY=              7.8176   XZ=             -0.0010   YZ=             -0.0034
 Traceless Quadrupole moment (field-independent basis, Debye-Ang):
   XX=             -1.7042   YY=              6.4987   ZZ=             -4.7944
   XY=              7.8176   XZ=             -0.0010   YZ=             -0.0034
 Octapole moment (field-independent basis, Debye-Ang**2):
  XXX=             -0.0049  YYY=              0.0247  ZZZ=             42.5904  XYY=              0.0277
  XXY=              0.0015  XXZ=            -14.0177  XZZ=             -0.0093  YZZ=             -0.0030
  YYZ=             42.6013  XYZ=             31.0602
 Hexadecapole moment (field-independent basis, Debye-Ang**3):
 XXXX=          -4729.2310 YYYY=          -1447.8827 ZZZZ=          -1340.9082 XXXY=             90.3201
 XXXZ=             -0.0401 YYYX=             37.6181 YYYZ=              0.1076 ZZZX=              0.0494
 ZZZY=             -0.0895 XXYY=          -1080.9633 XXZZ=          -1066.4257 YYZZ=           -338.3689
 XXYZ=             -0.0120 YYXZ=              0.0016 ZZXY=            -16.6488
 N-N= 1.672209565451D+03 E-N=-5.484638553008D+03  KE= 9.123224237953D+02
 Unable to Open any file for archive entry.
 1\1\GINC-CCC083\SP\RB3LYP TD-FC\6-31G(d)\C20H14O2\ROOT\20-Feb-2025\0\\
 # td=(nstat=16) b3lyp/6-31g(d)\\binol | No.18\\0,1\C,0,-2.649351,-1.83
 2311,1.83245\C,0,-1.598374,-1.347527,1.086838\C,0,-1.752742,-0.204025,
 0.253969\C,0,-3.038152,0.433045,0.219303\C,0,-4.10192,-0.094321,0.9989
 24\C,0,-3.91753,-1.204415,1.790135\H,0,-2.504443,-2.706494,2.462064\H,
 0,-0.629733,-1.834312,1.130242\C,0,-0.674998,0.320404,-0.528174\C,0,-3
 .210761,1.581867,-0.594026\H,0,-5.06975,0.400874,0.958647\H,0,-4.73816
 7,-1.598872,2.383109\C,0,-2.168535,2.08103,-1.335202\C,0,-0.899705,1.4
 49336,-1.30311\H,0,-4.183017,2.067746,-0.62352\H,0,-2.307851,2.963364,
 -1.958182\C,0,3.917087,1.205656,1.789705\C,0,4.101654,0.09496,0.999374
 \C,0,3.038059,-0.432997,0.219916\C,0,1.752604,0.204034,0.253924\C,0,1.
 598094,1.348265,1.085761\C,0,2.648929,1.833643,1.831195\H,0,4.183189,-
 2.06813,-0.621689\H,0,4.73759,1.600551,2.382575\H,0,5.069504,-0.400239
 ,0.959666\C,0,3.210899,-1.582289,-0.5927\C,0,0.675006,-0.321066,-0.527
 954\H,0,0.629473,1.83515,1.128492\H,0,2.503916,2.708379,2.460017\C,0,0
 .900034,-1.450233,-1.302454\C,0,2.1689,-2.081855,-1.333933\H,0,2.30843
 ,-2.964466,-1.956468\O,0,0.140582,1.940217,-2.044996\H,0,-0.162897,2.7
 25027,-2.526414\O,0,-0.139969,-1.941398,-2.044572\H,0,0.163674,-2.7263
 55,-2.52565\\Version=ES64L-G16RevC.02\State=1-A\HF=-921.0156195\RMSD=6
 .558e-09\PG=C01 [X(C20H14O2)]\\@
 The archive entry for this job was punched.


 TO SEE A WORLD IN A GRAIN OF SAND
 AND A HEAVEN IN A WILD FLOWER
 HOLD INFINITY IN THE PALM OF YOUR HAND
 AND ETERNITY IN AN HOUR

                       -- WILLIAM BLAKE
 Job cpu time:       0 days  0 hours 44 minutes 42.6 seconds.
 Elapsed time:       0 days  0 hours  5 minutes 58.0 seconds.
 File lengths (MBytes):  RWF=   1295 Int=      0 D2E=      0 Chk=     78 Scr=      1
 Normal termination of Gaussian 16 at Thu Feb 20 09:33:23 2025.
