 Entering Gaussian System, Link 0=/apl/gaussian/16c02/g16/._.g16
 Initial command:
 /apl/gaussian/16c02/g16/l1.exe "/lwork/users/ux8/8279367.ccpbs1/gaussian/Gau-3949711.inp" -scrdir="/lwork/users/ux8/8279367.ccpbs1/gaussian/"
 Default CPUs for threads: 104,105,106,107,108,109,110,111
 Default is to use a total of   8 processors:
                                8 via shared-memory
                                1 via Linda
 Entering Link 1 = /apl/gaussian/16c02/g16/l1.exe PID=   3949744.
  
 Copyright (c) 1988-2021, Gaussian, Inc.  All Rights Reserved.
  
 This is part of the Gaussian(R) 16 program.  It is based on
 the Gaussian(R) 09 system (copyright 2009, Gaussian, Inc.),
 the Gaussian(R) 03 system (copyright 2003, Gaussian, Inc.),
 the Gaussian(R) 98 system (copyright 1998, Gaussian, Inc.),
 the Gaussian(R) 94 system (copyright 1995, Gaussian, Inc.),
 the Gaussian 92(TM) system (copyright 1992, Gaussian, Inc.),
 the Gaussian 90(TM) system (copyright 1990, Gaussian, Inc.),
 the Gaussian 88(TM) system (copyright 1988, Gaussian, Inc.),
 the Gaussian 86(TM) system (copyright 1986, Carnegie Mellon
 University), and the Gaussian 82(TM) system (copyright 1983,
 Carnegie Mellon University). Gaussian is a federally registered
 trademark of Gaussian, Inc.
  
 This software contains proprietary and confidential information,
 including trade secrets, belonging to Gaussian, Inc.
  
 This software is provided under written license and may be
 used, copied, transmitted, or stored only in accord with that
 written license.
  
 The following legend is applicable only to US Government
 contracts under FAR:
  
                    RESTRICTED RIGHTS LEGEND
  
 Use, reproduction and disclosure by the US Government is
 subject to restrictions as set forth in subparagraphs (a)
 and (c) of the Commercial Computer Software - Restricted
 Rights clause in FAR 52.227-19.
  
 Gaussian, Inc.
 340 Quinnipiac St., Bldg. 40, Wallingford CT 06492
  
  
 ---------------------------------------------------------------
 Warning -- This program may not be used in any manner that
 competes with the business of Gaussian, Inc. or will provide
 assistance to any competitor of Gaussian, Inc.  The licensee
 of this program is prohibited from giving any competitor of
 Gaussian, Inc. access to this program.  By using this program,
 the user acknowledges that Gaussian, Inc. is engaged in the
 business of creating and licensing software in the field of
 computational chemistry and represents and warrants to the
 licensee that it is not a competitor of Gaussian, Inc. and that
 it will not use this program in any manner prohibited above.
 ---------------------------------------------------------------
  

 Cite this work as:
 Gaussian 16, Revision C.02,
 M. J. Frisch, G. W. Trucks, H. B. Schlegel, G. E. Scuseria, 
 M. A. Robb, J. R. Cheeseman, G. Scalmani, V. Barone, 
 G. A. Petersson, H. Nakatsuji, X. Li, M. Caricato, A. V. Marenich, 
 J. Bloino, B. G. Janesko, R. Gomperts, B. Mennucci, H. P. Hratchian, 
 J. V. Ortiz, A. F. Izmaylov, J. L. Sonnenberg, D. Williams-Young, 
 F. Ding, F. Lipparini, F. Egidi, J. Goings, B. Peng, A. Petrone, 
 T. Henderson, D. Ranasinghe, V. G. Zakrzewski, J. Gao, N. Rega, 
 G. Zheng, W. Liang, M. Hada, M. Ehara, K. Toyota, R. Fukuda, 
 J. Hasegawa, M. Ishida, T. Nakajima, Y. Honda, O. Kitao, H. Nakai, 
 T. Vreven, K. Throssell, J. A. Montgomery, Jr., J. E. Peralta, 
 F. Ogliaro, M. J. Bearpark, J. J. Heyd, E. N. Brothers, K. N. Kudin, 
 V. N. Staroverov, T. A. Keith, R. Kobayashi, J. Normand, 
 K. Raghavachari, A. P. Rendell, J. C. Burant, S. S. Iyengar, 
 J. Tomasi, M. Cossi, J. M. Millam, M. Klene, C. Adamo, R. Cammi, 
 J. W. Ochterski, R. L. Martin, K. Morokuma, O. Farkas, 
 J. B. Foresman, and D. J. Fox, Gaussian, Inc., Wallingford CT, 2019.
 
 ******************************************
 Gaussian 16:  ES64L-G16RevC.02  7-Dec-2021
                20-Feb-2025 
 ******************************************
 %chk=binol.013.tddft.chk
 %mem=9600MB
 SetSPE:  set environment variable "OMP_PROC_BIND" = "true"
 SetSPE:  set environment variable "OMP_PLACES" = "{104},{105},{106},{107},{108},{109},{110},{111}"
 ------------------------------
 # td=(nstat=16) b3lyp/6-31g(d)
 ------------------------------
 1/38=1,172=1/1;
 2/12=2,17=6,18=5,40=1/2;
 3/5=1,6=6,7=1,11=9,25=1,30=1,74=-5/1,2,3,8;
 4//1;
 5/5=2,38=5/2;
 8/6=1,10=2,108=16/1;
 9/41=16,42=1,70=2/14;
 6/7=2,8=2,9=2,10=2/1;
 99/5=1,9=1/99;
 -------------
 binol | No.13
 -------------
 Symbolic Z-matrix:
 Charge =  0 Multiplicity = 1
 C                    -2.98961  -1.88427   1.35139 
 C                    -1.85015  -1.40886   0.74072 
 C                    -1.8241   -0.15604   0.0633 
 C                    -3.02364   0.63275   0.14089 
 C                    -4.19408   0.10288   0.74762 
 C                    -4.19093  -1.14062   1.33201 
 H                    -2.95828  -2.84122   1.86633 
 H                    -0.94281  -1.99193   0.81015 
 C                    -0.65272   0.36783  -0.61473 
 C                    -3.00707   1.97259  -0.31989 
 H                    -5.08987   0.71988   0.76207 
 H                    -5.08773  -1.53491   1.80186 
 C                    -1.85222   2.51655  -0.81334 
 C                    -0.68118   1.72842  -0.9287 
 H                    -3.91316   2.56935  -0.25205 
 H                    -1.8233    3.55428  -1.14227 
 C                     4.19064   1.14084   1.33225 
 C                     4.19397  -0.10274   0.74797 
 C                     3.02371  -0.63269   0.14105 
 C                     1.82409   0.15597   0.06337 
 C                     1.84995   1.40887   0.7406 
 C                     2.9893    1.88443   1.35137 
 H                     3.91339  -2.5692   -0.25224 
 H                     5.08735   1.53515   1.80224 
 H                     5.0898   -0.71967   0.7627 
 C                     3.00727  -1.97246  -0.31999 
 C                     0.65286  -0.3679   -0.6149 
 H                     0.94253   1.99186   0.8098 
 H                     2.95787   2.84148   1.86612 
 C                     0.6813   -1.72854  -0.92868 
 C                     1.85246  -2.51649  -0.81344 
 H                     1.82368  -3.55424  -1.14232 
 O                     0.42054   2.27354  -1.53785 
 H                     0.23777   3.20304  -1.74313 
 O                    -0.42058  -2.2741   -1.53678 
 H                    -0.23608  -3.20255  -1.74522 
 
                          Input orientation:                          
 ---------------------------------------------------------------------
 Center     Atomic      Atomic             Coordinates (Angstroms)
 Number     Number       Type             X           Y           Z
 ---------------------------------------------------------------------
      1          6           0       -2.989607   -1.884271    1.351387
      2          6           0       -1.850146   -1.408861    0.740724
      3          6           0       -1.824096   -0.156038    0.063298
      4          6           0       -3.023643    0.632746    0.140885
      5          6           0       -4.194080    0.102880    0.747621
      6          6           0       -4.190933   -1.140621    1.332009
      7          1           0       -2.958281   -2.841215    1.866332
      8          1           0       -0.942809   -1.991929    0.810151
      9          6           0       -0.652722    0.367833   -0.614734
     10          6           0       -3.007066    1.972587   -0.319893
     11          1           0       -5.089866    0.719876    0.762068
     12          1           0       -5.087729   -1.534905    1.801861
     13          6           0       -1.852215    2.516554   -0.813343
     14          6           0       -0.681184    1.728417   -0.928703
     15          1           0       -3.913157    2.569353   -0.252051
     16          1           0       -1.823300    3.554282   -1.142272
     17          6           0        4.190645    1.140835    1.332246
     18          6           0        4.193968   -0.102742    0.747966
     19          6           0        3.023710   -0.632693    0.141046
     20          6           0        1.824088    0.155969    0.063373
     21          6           0        1.849948    1.408871    0.740601
     22          6           0        2.989299    1.884433    1.351368
     23          1           0        3.913387   -2.569197   -0.252236
     24          1           0        5.087353    1.535154    1.802235
     25          1           0        5.089798   -0.719670    0.762698
     26          6           0        3.007271   -1.972456   -0.319989
     27          6           0        0.652861   -0.367896   -0.614902
     28          1           0        0.942532    1.991861    0.809800
     29          1           0        2.957868    2.841481    1.866115
     30          6           0        0.681302   -1.728540   -0.928680
     31          6           0        1.852462   -2.516487   -0.813436
     32          1           0        1.823675   -3.554237   -1.142322
     33          8           0        0.420539    2.273544   -1.537853
     34          1           0        0.237772    3.203042   -1.743127
     35          8           0       -0.420580   -2.274104   -1.536783
     36          1           0       -0.236080   -3.202545   -1.745224
 ---------------------------------------------------------------------
                    Distance matrix (angstroms):
                    1          2          3          4          5
     1  C    0.000000
     2  C    1.377423   0.000000
     3  C    2.450383   1.424482   0.000000
     4  C    2.793179   2.430033   1.437746   0.000000
     5  C    2.400845   2.789164   2.480355   1.420848   0.000000
     6  C    1.413002   2.429167   2.860236   2.434373   1.373977
     7  H    1.087148   2.132274   3.427460   3.879413   3.383254
     8  H    2.119884   1.080763   2.169090   3.415656   3.868191
     9  C    3.794553   2.535297   1.451305   2.502480   3.803607
    10  C    4.203431   3.727944   2.465218   1.416956   2.458535
    11  H    3.397053   3.876566   3.452645   2.159337   1.087808
    12  H    2.174189   3.409376   3.946540   3.423157   2.142982
    13  C    5.034578   4.221849   2.812835   2.414856   3.707663
    14  C    4.855836   3.741119   2.416916   2.798505   4.218160
    15  H    4.822730   4.589968   3.448388   2.167044   2.676145
    16  H    6.095610   5.308407   3.901266   3.409206   4.593960
    17  C    7.791512   6.583464   6.282453   7.329628   8.468929
    18  C    7.425747   6.183633   6.057120   7.280343   8.390568
    19  C    6.260300   4.971571   4.871803   6.178334   7.280487
    20  C    5.384535   4.050616   3.661502   4.871737   6.057174
    21  C    5.885502   4.650840   4.050466   4.971310   6.183521
    22  C    7.067563   5.885482   5.384368   6.259989   7.425589
    23  H    7.119835   5.962438   6.232304   7.650449   8.594808
    24  H    8.782540   7.610711   7.324763   8.328426   9.450324
    25  H    8.184109   6.974116   6.971999   8.248855   9.320258
    26  C    6.226060   5.003724   5.175750   6.585697   7.570090
    27  C    4.408317   3.030903   2.576850   3.884479   5.056771
    28  H    5.547921   4.400992   3.581196   4.245608   5.473290
    29  H    7.613812   6.515283   5.924732   6.605558   7.739595
    30  C    4.324180   3.049153   3.119904   4.521754   5.471146
    31  C    5.341516   4.165520   4.456171   5.882584   6.771902
    32  H    5.672306   4.652468   5.129085   6.532529   7.291074
    33  O    6.104443   4.889584   3.674907   4.168065   5.588370
    34  H    6.772942   5.639022   4.335653   4.559907   5.954506
    35  O    3.885022   2.824773   3.002719   4.247386   5.010774
    36  H    4.348420   3.464455   3.882493   5.102683   5.727641
                    6          7          8          9         10
     6  C    0.000000
     7  H    2.167245   0.000000
     8  H    3.398142   2.428772   0.000000
     9  C    4.310937   4.665756   2.771809   0.000000
    10  C    3.717847   5.287216   4.610373   2.864455   0.000000
    11  H    2.143446   4.294697   4.955228   4.659159   2.660447
    12  H    1.086492   2.499030   4.286341   5.397187   4.597119
    13  C    4.842217   6.091776   4.877414   2.468852   1.368603
    14  C    5.065623   5.820561   4.114977   1.396630   2.416608
    15  H    4.043552   5.888428   5.545857   3.950780   1.087075
    16  H    5.811185   7.158370   5.945391   3.435405   2.139946
    17  C    8.686535   8.200556   6.036484   5.276975   7.431582
    18  C    8.469053   7.739809   5.473516   5.056560   7.569822
    19  C    7.329902   6.605937   4.245998   3.884380   6.585606
    20  C    6.282600   5.924933   3.581461   2.576685   5.175620
    21  C    6.583458   6.515333   4.401110   3.030520   5.003300
    22  C    7.791473   7.613846   5.548024   4.407942   6.225534
    23  H    8.380374   7.195981   5.004452   5.441222   8.277986
    24  H    9.667858   9.159091   7.056019   6.336627   8.379403
    25  H    9.307700   8.395864   6.165488   6.004708   8.601131
    26  C    7.432038   6.412687   4.108616   4.354237   7.192747
    27  C    5.277301   5.031319   2.685968   1.498614   4.354303
    28  H    6.036357   6.300097   4.407391   2.685442   4.108029
    29  H    8.200473   8.203283   6.300174   5.030895   6.412024
    30  C    5.403243   4.721938   2.393876   2.504588   5.260515
    31  C    6.558854   5.516326   3.274864   3.825537   6.634032
    32  H    6.937101   5.694515   3.729127   4.668353   7.386354
    33  O    6.415474   7.011823   5.056293   2.373978   3.649997
    34  H    6.923677   7.731493   5.907683   3.178783   3.750812
    35  O    4.871377   4.282842   2.420836   2.807828   5.119093
    36  H    5.418649   4.536990   2.914618   3.768182   6.040854
                   11         12         13         14         15
    11  H    0.000000
    12  H    2.482984   0.000000
    13  C    4.023973   5.807079   0.000000
    14  C    4.828285   6.125593   1.416256   0.000000
    15  H    2.415294   4.737416   2.136661   3.407445   0.000000
    16  H    4.725550   6.724897   1.088995   2.164214   2.475900
    17  C    9.307534   9.667903   6.558377   5.402949   8.379873
    18  C    9.320219   9.450486   6.771612   5.470966   8.594510
    19  C    8.248953   8.328730   5.882454   4.521664   7.650343
    20  C    6.972010   7.324931   4.456029   3.119807   6.232166
    21  C    6.973965   7.610746   4.165059   3.048822   5.962001
    22  C    8.183909   8.782551   5.340956   4.323831   7.119267
    23  H    9.638744   9.290273   7.708558   6.327494   9.362665
    24  H   10.262671  10.628149   7.480775   6.385248   9.289717
    25  H   10.280946  10.262871   7.819757   6.492935   9.638495
    26  C    8.601344   8.379900   6.633944   5.260389   8.277981
    27  C    6.004849   6.336957   3.825550   2.504531   5.441288
    28  H    6.165229   7.055942   3.274218   2.393376   5.003873
    29  H    8.395603   9.159067   5.515612   4.721506   7.195253
    30  C    6.493054   6.385536   4.944981   3.715766   6.327619
    31  C    7.819986   7.481279   6.249491   4.944882   7.708650
    32  H    8.348161   7.779037   7.104569   5.850332   8.438138
    33  O    6.169934   7.483247   2.397786   1.371868   4.530089
    34  H    6.389510   7.960907   2.388265   1.918928   4.455904
    35  O    6.004237   5.785779   5.052064   4.056828   6.108003
    36  H    6.725410   6.237093   6.015679   5.017889   7.004660
                   16         17         18         19         20
    16  H    0.000000
    17  C    6.936534   0.000000
    18  C    7.290702   1.374001   0.000000
    19  C    6.532317   2.434357   1.420811   0.000000
    20  C    5.128894   2.860173   2.480308   1.437746   0.000000
    21  C    4.651962   2.429146   2.789168   2.430055   1.424454
    22  C    5.671662   1.412988   2.400872   2.793204   2.450354
    23  H    8.437934   4.043735   2.676290   2.167082   3.448378
    24  H    7.778440   1.086491   2.142971   3.423117   3.946478
    25  H    8.347844   2.143441   1.087809   2.159337   3.452631
    26  C    7.386163   3.717907   2.458578   1.416965   2.465174
    27  C    4.668294   4.310867   3.803571   2.502499   1.451297
    28  H    3.728481   3.398151   3.868206   3.415672   2.169054
    29  H    5.693685   2.167245   3.383290   3.879444   3.427435
    30  C    5.850373   5.065628   4.218197   2.798583   2.416920
    31  C    7.104477   4.842216   3.707667   2.414858   2.812760
    32  H    7.989460   5.811173   4.593941   3.409184   3.901196
    33  O    2.613731   4.871776   5.011035   4.247519   3.002998
    34  H    2.175411   5.416255   5.725840   5.101414   3.881301
    35  O    6.007774   6.415336   5.588286   4.168030   3.674818
    36  H    6.966888   6.923270   5.953999   4.559428   4.335312
                   21         22         23         24         25
    21  C    0.000000
    22  C    1.377431   0.000000
    23  H    4.590047   4.822894   0.000000
    24  H    3.409370   2.174191   4.737588   0.000000
    25  H    3.876571   3.397055   2.415530   2.482917   0.000000
    26  C    3.727951   4.203493   1.087077   4.597163   2.660564
    27  C    2.535213   3.794489   3.950732   5.397117   4.659178
    28  H    1.080773   2.119927   5.545913   4.286380   4.955243
    29  H    2.132285   1.087149   5.888622   2.499055   4.294700
    30  C    3.741067   4.855826   3.407441   6.125592   4.828397
    31  C    4.221785   5.034568   2.136618   5.807069   4.024064
    32  H    5.308345   6.095597   2.475773   6.724873   4.725614
    33  O    2.825283   3.885554   6.107777   5.786239   6.004485
    34  H    3.462234   4.345748   7.003688   6.234571   6.723763
    35  O    4.889384   6.104271   4.529946   7.483102   6.169939
    36  H    5.638794   6.772688   4.455134   7.960477   6.389000
                   26         27         28         29         30
    26  C    0.000000
    27  C    2.864408   0.000000
    28  H    4.610356   2.771667   0.000000
    29  H    5.287294   4.665684   2.428834   0.000000
    30  C    2.416636   1.396645   4.114844   5.820543   0.000000
    31  C    1.368592   2.468785   4.877301   6.091776   1.416248
    32  H    2.139898   3.435367   5.945284   7.158372   2.164215
    33  O    5.118876   2.807671   2.421425   4.283409   4.056571
    34  H    6.039969   3.767863   2.912230   4.533903   5.018022
    35  O    3.649896   2.373977   5.055985   7.011621   1.371705
    36  H    3.750165   3.178534   5.907548   7.731321   1.918600
                   31         32         33         34         35
    31  C    0.000000
    32  H    1.088999   0.000000
    33  O    5.051691   6.007351   0.000000
    34  H    6.015360   6.966841   0.969282   0.000000
    35  O    2.397645   2.613622   4.624779   5.520429   0.000000
    36  H    2.387658   2.174803   5.519212   6.423090   0.969273
                   36
    36  H    0.000000
 Stoichiometry    C20H14O2
 Framework group  C1[X(C20H14O2)]
 Deg. of freedom   102
 Full point group                 C1      NOp   1
 Largest Abelian subgroup         C1      NOp   1
 Largest concise Abelian subgroup C1      NOp   1
                         Standard orientation:                         
 ---------------------------------------------------------------------
 Center     Atomic      Atomic             Coordinates (Angstroms)
 Number     Number       Type             X           Y           Z
 ---------------------------------------------------------------------
      1          6           0        2.989607    1.884271    1.351387
      2          6           0        1.850146    1.408861    0.740724
      3          6           0        1.824096    0.156038    0.063298
      4          6           0        3.023643   -0.632746    0.140885
      5          6           0        4.194080   -0.102880    0.747621
      6          6           0        4.190933    1.140621    1.332009
      7          1           0        2.958281    2.841215    1.866332
      8          1           0        0.942809    1.991929    0.810151
      9          6           0        0.652722   -0.367833   -0.614734
     10          6           0        3.007066   -1.972587   -0.319893
     11          1           0        5.089866   -0.719877    0.762068
     12          1           0        5.087729    1.534904    1.801861
     13          6           0        1.852215   -2.516554   -0.813343
     14          6           0        0.681184   -1.728417   -0.928703
     15          1           0        3.913157   -2.569353   -0.252051
     16          1           0        1.823300   -3.554282   -1.142272
     17          6           0       -4.190645   -1.140835    1.332246
     18          6           0       -4.193968    0.102742    0.747966
     19          6           0       -3.023710    0.632693    0.141046
     20          6           0       -1.824088   -0.155969    0.063373
     21          6           0       -1.849948   -1.408871    0.740601
     22          6           0       -2.989299   -1.884433    1.351368
     23          1           0       -3.913387    2.569197   -0.252236
     24          1           0       -5.087353   -1.535154    1.802235
     25          1           0       -5.089798    0.719670    0.762698
     26          6           0       -3.007271    1.972456   -0.319989
     27          6           0       -0.652861    0.367896   -0.614902
     28          1           0       -0.942532   -1.991861    0.809800
     29          1           0       -2.957868   -2.841481    1.866115
     30          6           0       -0.681302    1.728540   -0.928680
     31          6           0       -1.852462    2.516487   -0.813436
     32          1           0       -1.823675    3.554237   -1.142322
     33          8           0       -0.420539   -2.273544   -1.537853
     34          1           0       -0.237772   -3.203042   -1.743127
     35          8           0        0.420580    2.274104   -1.536783
     36          1           0        0.236080    3.202545   -1.745224
 ---------------------------------------------------------------------
 Rotational constants (GHZ):           0.4994211           0.2308029           0.1887693
 Standard basis: 6-31G(d) (6D, 7F)
 There are   358 symmetry adapted cartesian basis functions of A   symmetry.
 There are   358 symmetry adapted basis functions of A   symmetry.
   358 basis functions,   672 primitive gaussians,   358 cartesian basis functions
    75 alpha electrons       75 beta electrons
       nuclear repulsion energy      1676.4939737462 Hartrees.
 NAtoms=   36 NActive=   36 NUniq=   36 SFac= 1.00D+00 NAtFMM=   60 NAOKFM=F Big=F
 Integral buffers will be    131072 words long.
 Regular integral format.
 Two-electron integral symmetry is turned on.
 One-electron integrals computed using PRISM.
 NBasis=   358 RedAO= T EigKep=  2.68D-04  NBF=   358
 NBsUse=   358 1.00D-06 EigRej= -1.00D+00 NBFU=   358
 ExpMin= 1.61D-01 ExpMax= 5.48D+03 ExpMxC= 8.25D+02 IAcc=3 IRadAn=         5 AccDes= 0.00D+00
 Harris functional with IExCor=  402 and IRadAn=       5 diagonalized for initial guess.
 HarFok:  IExCor=  402 AccDes= 0.00D+00 IRadAn=         5 IDoV= 1 UseB2=F ITyADJ=14
 ICtDFT=  3500011 ScaDFX=  1.000000  1.000000  1.000000  1.000000
 FoFCou: FMM=F IPFlag=           0 FMFlag=      100000 FMFlg1=           0
         NFxFlg=           0 DoJE=T BraDBF=F KetDBF=T FulRan=T
         wScrn=  0.000000 ICntrl=       500 IOpCl=  0 I1Cent=   200000004 NGrid=           0
         NMat0=    1 NMatS0=      1 NMatT0=    0 NMatD0=    1 NMtDS0=    0 NMtDT0=    0
 Petite list used in FoFCou.
 Requested convergence on RMS density matrix=1.00D-08 within 128 cycles.
 Requested convergence on MAX density matrix=1.00D-06.
 Requested convergence on             energy=1.00D-06.
 No special actions if energy rises.
 Integral accuracy reduced to 1.0D-05 until final iterations.
 Initial convergence to 1.0D-05 achieved.  Increase integral accuracy.
 SCF Done:  E(RB3LYP) =  -920.997499235     A.U. after   14 cycles
            NFock= 14  Conv=0.67D-08     -V/T= 2.0095
 DoSCS=F DFT=T ScalE2(SS,OS)=  1.000000  1.000000
 ExpMin= 1.61D-01 ExpMax= 5.48D+03 ExpMxC= 8.25D+02 IAcc=3 IRadAn=         5 AccDes= 0.00D+00
 HarFok:  IExCor=  205 AccDes= 0.00D+00 IRadAn=         5 IDoV=-2 UseB2=F ITyADJ=14
 ICtDFT= 12500011 ScaDFX=  1.000000  1.000000  1.000000  1.000000
 GSVD:  LWork=        -660 too small for GESVD, short by        2750 words or        2750 for optimal perf.
 Range of M.O.s used for correlation:    23   358
 NBasis=   358 NAE=    75 NBE=    75 NFC=    22 NFV=     0
 NROrb=    336 NOA=    53 NOB=    53 NVA=   283 NVB=   283
 Orbital symmetries:
       Occupied  (A) (A) (A) (A) (A) (A) (A) (A) (A) (A) (A) (A)
                 (A) (A) (A) (A) (A) (A) (A) (A) (A) (A) (A) (A)
                 (A) (A) (A) (A) (A) (A) (A) (A) (A) (A) (A) (A)
                 (A) (A) (A) (A) (A) (A) (A) (A) (A) (A) (A) (A)
                 (A) (A) (A) (A) (A) (A) (A) (A) (A) (A) (A) (A)
                 (A) (A) (A) (A) (A) (A) (A) (A) (A) (A) (A) (A)
                 (A) (A) (A)
       Virtual   (A) (A) (A) (A) (A) (A) (A) (A) (A) (A) (A) (A)
                 (A) (A) (A) (A) (A) (A) (A) (A) (A) (A) (A) (A)
                 (A) (A) (A) (A) (A) (A) (A) (A) (A) (A) (A) (A)
                 (A) (A) (A) (A) (A) (A) (A) (A) (A) (A) (A) (A)
                 (A) (A) (A) (A) (A) (A) (A) (A) (A) (A) (A) (A)
                 (A) (A) (A) (A) (A) (A) (A) (A) (A) (A) (A) (A)
                 (A) (A) (A) (A) (A) (A) (A) (A) (A) (A) (A) (A)
                 (A) (A) (A) (A) (A) (A) (A) (A) (A) (A) (A) (A)
                 (A) (A) (A) (A) (A) (A) (A) (A) (A) (A) (A) (A)
                 (A) (A) (A) (A) (A) (A) (A) (A) (A) (A) (A) (A)
                 (A) (A) (A) (A) (A) (A) (A) (A) (A) (A) (A) (A)
                 (A) (A) (A) (A) (A) (A) (A) (A) (A) (A) (A) (A)
                 (A) (A) (A) (A) (A) (A) (A) (A) (A) (A) (A) (A)
                 (A) (A) (A) (A) (A) (A) (A) (A) (A) (A) (A) (A)
                 (A) (A) (A) (A) (A) (A) (A) (A) (A) (A) (A) (A)
                 (A) (A) (A) (A) (A) (A) (A) (A) (A) (A) (A) (A)
                 (A) (A) (A) (A) (A) (A) (A) (A) (A) (A) (A) (A)
                 (A) (A) (A) (A) (A) (A) (A) (A) (A) (A) (A) (A)
                 (A) (A) (A) (A) (A) (A) (A) (A) (A) (A) (A) (A)
                 (A) (A) (A) (A) (A) (A) (A) (A) (A) (A) (A) (A)
                 (A) (A) (A) (A) (A) (A) (A) (A) (A) (A) (A) (A)
                 (A) (A) (A) (A) (A) (A) (A) (A) (A) (A) (A) (A)
                 (A) (A) (A) (A) (A) (A) (A) (A) (A) (A) (A) (A)
                 (A) (A) (A) (A) (A) (A) (A)
    64 initial guesses have been made.
 Convergence on wavefunction:    0.001000000000000
 Iteration     1 Dimension    64 NMult     0 NNew     64
 CISAX will form    64 AO SS matrices at one time.
 New state      3 was old state      5
 New state      5 was old state      6
 New state      6 was old state      3
 New state      7 was old state      8
 New state      8 was old state     13
 New state      9 was old state     11
 New state     10 was old state     12
 New state     11 was old state     10
 New state     12 was old state     14
 New state     13 was old state     19
 New state     14 was old state     16
 New state     16 was old state     20
 Iteration     2 Dimension    96 NMult    64 NNew     32
 New state      5 was old state      6
 New state      6 was old state      5
 New state     16 was old state     17
 Iteration     3 Dimension   128 NMult    96 NNew     32
 Iteration     4 Dimension   160 NMult   128 NNew     32
 Iteration     5 Dimension   178 NMult   160 NNew     18
 Iteration     6 Dimension   182 NMult   178 NNew      4
 ***********************************************************************
 Excited states from <AA,BB:AA,BB> singles matrix:
 ***********************************************************************
 
 Ground to excited state transition densities written to RWF  633
 Ground to excited state transition electric dipole moments (Au):
       state          X           Y           Z        Dip. S.      Osc.
         1         1.3994     -0.6525     -0.0001      2.3840      0.2042
         2        -0.0007      0.0005     -0.1357      0.0184      0.0017
         3        -0.0000      0.0002      0.1362      0.0185      0.0019
         4        -0.2818     -0.2792     -0.0000      0.1574      0.0162
         5        -0.0003      0.0004     -0.0895      0.0080      0.0009
         6        -0.6399      0.1482      0.0000      0.4315      0.0472
         7         0.0007      0.0017      0.4065      0.1653      0.0192
         8        -0.4094     -0.7653      0.0010      0.7533      0.0887
         9         0.0009      0.0005      0.0983      0.0097      0.0012
        10        -0.2182      0.0231     -0.0000      0.0481      0.0059
        11        -0.1256      0.0128      0.0002      0.0159      0.0020
        12         1.0718      0.0356      0.0001      1.1500      0.1507
        13        -0.0008     -0.0009     -0.8762      0.7678      0.1044
        14        -0.0009      0.0014     -0.5553      0.3083      0.0427
        15         0.2361      0.7277      0.0024      0.5854      0.0815
        16        -0.0009     -0.0024     -0.1356      0.0184      0.0026
 Ground to excited state transition velocity dipole moments (Au):
       state          X           Y           Z        Dip. S.      Osc.
         1        -0.1913      0.0852      0.0000      0.0439      0.2276
         2         0.0001     -0.0001      0.0212      0.0005      0.0022
         3         0.0000     -0.0000     -0.0139      0.0002      0.0009
         4         0.0381      0.0411      0.0000      0.0031      0.0136
         5         0.0001     -0.0001      0.0124      0.0002      0.0006
         6         0.1146     -0.0274      0.0000      0.0139      0.0564
         7        -0.0001     -0.0003     -0.0738      0.0055      0.0209
         8         0.0630      0.1338     -0.0002      0.0219      0.0826
         9        -0.0001     -0.0001     -0.0181      0.0003      0.0012
        10         0.0448     -0.0050     -0.0000      0.0020      0.0074
        11         0.0270      0.0102     -0.0000      0.0008      0.0030
        12        -0.2046     -0.0072     -0.0000      0.0419      0.1421
        13         0.0002      0.0002      0.1771      0.0314      0.1025
        14         0.0002     -0.0003      0.1170      0.0137      0.0439
        15        -0.0456     -0.1475     -0.0005      0.0238      0.0761
        16         0.0002      0.0005      0.0290      0.0008      0.0027
 Ground to excited state transition magnetic dipole moments (Au):
       state          X           Y           Z
         1         0.1980      0.1450      0.0005
         2        -0.0001      0.0000      0.7832
         3         0.0002      0.0000     -0.6511
         4        -0.1781     -0.3110     -0.0003
         5         0.0003      0.0004      0.1260
         6         0.1433     -0.0067      0.0003
         7         0.0003      0.0011     -1.0933
         8        -0.1922     -0.4646     -0.0029
         9         0.0004      0.0003     -0.2882
        10        -0.1251      0.0144      0.0001
        11        -0.0652     -0.1328     -0.0003
        12         0.3965      0.8485     -0.0003
        13        -0.0000     -0.0005      1.8186
        14         0.0006      0.0006      1.1174
        15         0.1324      0.3964     -0.0050
        16        -0.0007     -0.0012      0.1341
 Ground to excited state transition velocity quadrupole moments (Au):
       state          XX          YY          ZZ          XY          XZ          YZ
         1         0.0001      0.0000     -0.0000      0.0000     -0.1647     -0.2180
         2        -0.1326     -0.1374      0.0111      0.2063      0.0001      0.0001
         3         0.5744      0.1566     -0.0145     -0.4571     -0.0001      0.0001
         4         0.0008      0.0001     -0.0001     -0.0003      0.1323      0.0099
         5         0.7438     -0.0574     -0.0072     -0.1600     -0.0000     -0.0000
         6        -0.0005      0.0000      0.0001      0.0003      0.1333     -0.0153
         7        -0.4294      0.2001      0.0016     -0.3618     -0.0005      0.0000
         8        -0.0010      0.0005      0.0000     -0.0010      0.2672     -0.0406
         9        -0.1067      0.1064      0.0032     -0.1245     -0.0004      0.0001
        10         0.0002     -0.0000      0.0000      0.0000      0.0996      0.0270
        11        -0.0004      0.0001      0.0001     -0.0001     -0.0013      0.1124
        12        -0.0000      0.0000     -0.0001      0.0000     -0.3035     -0.4118
        13         1.7334     -0.4777      0.0480      0.9547      0.0005     -0.0001
        14         1.3385     -0.2176      0.0525      0.4812     -0.0005     -0.0000
        15        -0.0057      0.0011     -0.0002     -0.0024     -0.3793      0.0066
        16         0.0300     -0.2664     -0.0190      0.3775      0.0013     -0.0001
 <0|del|b> * <b|rxdel|0> + <0|del|b> * <b|delr+rdel|0>
 Rotatory Strengths (R) in cgs (10**-40 erg-esu-cm/Gauss)
       state          XX          YY          ZZ    R(velocity)    E-M Angle
         1        72.6062     10.4916   -223.6156    -46.8393      119.78
         2        53.4627     31.1695     -0.0001     28.2107        0.36
         3        36.4796      6.3892      0.0000     14.2896       90.00
         4       -41.7989    -14.7146    -33.2961    -29.9365      166.93
         5        -0.9332      7.8593     -0.0000      2.3087       90.00
         6         8.2692     31.5874     31.6520     23.8362       10.80
         7       218.0851    109.6295     -0.0005    109.2380        0.31
         8      -196.0655    -29.3771    -72.0223    -99.1550      177.21
         9        14.6177      5.7984     -0.0001      6.8053       90.00
        10         0.8311     -8.4808    -14.2644     -7.3047       90.00
        11        -2.5497      2.4352    -11.7614     -3.9586      136.77
        12       -14.8723      5.6390   -304.4411   -104.5581      117.05
        13       851.2793    265.1721      0.0000    372.1505        0.10
        14       318.1172    126.5949      0.0002    148.2374        0.18
        15      -193.7937    -10.7362    -13.9814    -72.8371      178.45
        16        24.9415    -11.8708     -0.0002      4.3568        1.64
 1/2[<0|r|b>*<b|rxdel|0> + (<0|rxdel|b>*<b|r|0>)*]
 Rotatory Strengths (R) in cgs (10**-40 erg-esu-cm/Gauss)
       state          XX          YY          ZZ     R(length)
         1      -195.9614     66.9096      0.0000    -43.0173
         2        -0.0001     -0.0000     75.1326     25.0442
         3         0.0000     -0.0000     62.7066     20.9022
         4       -35.4927    -61.4115     -0.0000    -32.3014
         5         0.0001     -0.0001      7.9792      2.6597
         6        64.8276      0.6990     -0.0000     21.8422
         7        -0.0002     -0.0013    314.3121    104.7702
         8       -55.6303   -251.4548      0.0021   -102.3610
         9        -0.0002     -0.0001     20.0258      6.6752
        10       -19.2932     -0.2346      0.0000     -6.5093
        11        -5.7912      1.2048      0.0000     -1.5288
        12      -300.4957    -21.3576      0.0000   -107.2844
        13        -0.0000     -0.0003   1126.8846    375.6281
        14         0.0003     -0.0006    438.7806    146.2601
        15       -22.1003   -203.9902      0.0086    -75.3607
        16        -0.0005     -0.0021     12.8575      4.2850
  1/2[<0|del|b>*<b|r|0> + (<0|r|b>*<b|del|0>)*] (Au)
       state          X           Y           Z        Dip. S.   Osc.(frdel)
         1        -0.2677     -0.0556     -0.0000      0.3233      0.2155
         2        -0.0000     -0.0000     -0.0029      0.0029      0.0019
         3        -0.0000     -0.0000     -0.0019      0.0019      0.0013
         4        -0.0107     -0.0115     -0.0000      0.0222      0.0148
         5        -0.0000     -0.0000     -0.0011      0.0011      0.0007
         6        -0.0733     -0.0041      0.0000      0.0774      0.0516
         7        -0.0000     -0.0000     -0.0300      0.0300      0.0200
         8        -0.0258     -0.1024     -0.0000      0.1282      0.0855
         9        -0.0000     -0.0000     -0.0018      0.0018      0.0012
        10        -0.0098     -0.0001      0.0000      0.0099      0.0066
        11        -0.0034      0.0001     -0.0000      0.0033      0.0022
        12        -0.2193     -0.0003     -0.0000      0.2195      0.1463
        13        -0.0000     -0.0000     -0.1552      0.1552      0.1035
        14        -0.0000     -0.0000     -0.0650      0.0650      0.0433
        15        -0.0108     -0.1074     -0.0000      0.1181      0.0788
        16        -0.0000     -0.0000     -0.0039      0.0039      0.0026

 Excitation energies and oscillator strengths:
 
 Excited State   1:      Singlet-A      3.4965 eV  354.59 nm  f=0.2042  <S**2>=0.000
      75 -> 76         0.69712
 This state for optimization and/or second-order correction.
 Total Energy, E(TD-HF/TD-DFT) =  -920.869004776    
 Copying the excited state density for this state as the 1-particle RhoCI density.
 
 Excited State   2:      Singlet-A      3.7800 eV  328.00 nm  f=0.0017  <S**2>=0.000
      74 -> 76         0.64797
      75 -> 77         0.25549
 
 Excited State   3:      Singlet-A      4.0743 eV  304.30 nm  f=0.0019  <S**2>=0.000
      72 -> 76        -0.19789
      74 -> 76        -0.19490
      75 -> 77         0.60950
      75 -> 79        -0.15292
 
 Excited State   4:      Singlet-A      4.1894 eV  295.95 nm  f=0.0162  <S**2>=0.000
      73 -> 76         0.52357
      74 -> 77        -0.20015
      74 -> 79         0.12307
      75 -> 78        -0.38953
 
 Excited State   5:      Singlet-A      4.3487 eV  285.11 nm  f=0.0009  <S**2>=0.000
      72 -> 76         0.54145
      74 -> 76        -0.16105
      74 -> 78        -0.16082
      75 -> 77         0.21109
      75 -> 79         0.31590
 
 Excited State   6:      Singlet-A      4.4673 eV  277.54 nm  f=0.0472  <S**2>=0.000
      73 -> 76         0.30525
      74 -> 77         0.61172
 
 Excited State   7:      Singlet-A      4.7404 eV  261.55 nm  f=0.0192  <S**2>=0.000
      72 -> 76        -0.33413
      73 -> 77        -0.39839
      75 -> 79         0.46383
 
 Excited State   8:      Singlet-A      4.8055 eV  258.00 nm  f=0.0887  <S**2>=0.000
      72 -> 77         0.27215
      73 -> 76         0.26834
      74 -> 77        -0.21517
      74 -> 79         0.22677
      75 -> 78         0.48474
 
 Excited State   9:      Singlet-A      4.9208 eV  251.96 nm  f=0.0012  <S**2>=0.000
      73 -> 77         0.35603
      74 -> 78         0.52799
      75 -> 79         0.27280
 
 Excited State  10:      Singlet-A      4.9787 eV  249.03 nm  f=0.0059  <S**2>=0.000
      71 -> 76         0.47830
      72 -> 77        -0.28507
      74 -> 77         0.10483
      74 -> 79         0.36518
      75 -> 78         0.14640
      75 -> 80         0.10788
 
 Excited State  11:      Singlet-A      5.0383 eV  246.08 nm  f=0.0020  <S**2>=0.000
      71 -> 76         0.44789
      72 -> 77         0.40342
      74 -> 79        -0.29523
      75 -> 80         0.18864
 
 Excited State  12:      Singlet-A      5.3492 eV  231.78 nm  f=0.1507  <S**2>=0.000
      71 -> 76        -0.20526
      74 -> 79         0.16028
      75 -> 80         0.63874
 
 Excited State  13:      Singlet-A      5.5524 eV  223.30 nm  f=0.1044  <S**2>=0.000
      70 -> 76         0.21064
      71 -> 77         0.33968
      72 -> 76         0.12197
      73 -> 77        -0.30717
      73 -> 79         0.13439
      74 -> 78         0.26615
      74 -> 80        -0.19117
      75 -> 79        -0.15950
      75 -> 81         0.24421
 
 Excited State  14:      Singlet-A      5.6584 eV  219.11 nm  f=0.0427  <S**2>=0.000
      71 -> 77        -0.35751
      71 -> 79         0.10197
      72 -> 78         0.45048
      73 -> 77        -0.10597
      74 -> 78         0.21394
      74 -> 80        -0.11995
      75 -> 79        -0.12383
      75 -> 81        -0.21804
 
 Excited State  15:      Singlet-A      5.6817 eV  218.22 nm  f=0.0815  <S**2>=0.000
      72 -> 77         0.12503
      72 -> 79         0.36589
      73 -> 78         0.56160
      74 -> 79         0.11288
 
 Excited State  16:      Singlet-A      5.7220 eV  216.68 nm  f=0.0026  <S**2>=0.000
      70 -> 76        -0.23747
      71 -> 79        -0.10732
      73 -> 79         0.49682
      74 -> 80         0.38064
 SavETr:  write IOETrn=   770 NScale= 10 NData=  16 NLR=1 NState=   16 LETran=     298.

 **********************************************************************

            Population analysis using the SCF Density.

 **********************************************************************

 Orbital symmetries:
       Occupied  (A) (A) (A) (A) (A) (A) (A) (A) (A) (A) (A) (A)
                 (A) (A) (A) (A) (A) (A) (A) (A) (A) (A) (A) (A)
                 (A) (A) (A) (A) (A) (A) (A) (A) (A) (A) (A) (A)
                 (A) (A) (A) (A) (A) (A) (A) (A) (A) (A) (A) (A)
                 (A) (A) (A) (A) (A) (A) (A) (A) (A) (A) (A) (A)
                 (A) (A) (A) (A) (A) (A) (A) (A) (A) (A) (A) (A)
                 (A) (A) (A)
       Virtual   (A) (A) (A) (A) (A) (A) (A) (A) (A) (A) (A) (A)
                 (A) (A) (A) (A) (A) (A) (A) (A) (A) (A) (A) (A)
                 (A) (A) (A) (A) (A) (A) (A) (A) (A) (A) (A) (A)
                 (A) (A) (A) (A) (A) (A) (A) (A) (A) (A) (A) (A)
                 (A) (A) (A) (A) (A) (A) (A) (A) (A) (A) (A) (A)
                 (A) (A) (A) (A) (A) (A) (A) (A) (A) (A) (A) (A)
                 (A) (A) (A) (A) (A) (A) (A) (A) (A) (A) (A) (A)
                 (A) (A) (A) (A) (A) (A) (A) (A) (A) (A) (A) (A)
                 (A) (A) (A) (A) (A) (A) (A) (A) (A) (A) (A) (A)
                 (A) (A) (A) (A) (A) (A) (A) (A) (A) (A) (A) (A)
                 (A) (A) (A) (A) (A) (A) (A) (A) (A) (A) (A) (A)
                 (A) (A) (A) (A) (A) (A) (A) (A) (A) (A) (A) (A)
                 (A) (A) (A) (A) (A) (A) (A) (A) (A) (A) (A) (A)
                 (A) (A) (A) (A) (A) (A) (A) (A) (A) (A) (A) (A)
                 (A) (A) (A) (A) (A) (A) (A) (A) (A) (A) (A) (A)
                 (A) (A) (A) (A) (A) (A) (A) (A) (A) (A) (A) (A)
                 (A) (A) (A) (A) (A) (A) (A) (A) (A) (A) (A) (A)
                 (A) (A) (A) (A) (A) (A) (A) (A) (A) (A) (A) (A)
                 (A) (A) (A) (A) (A) (A) (A) (A) (A) (A) (A) (A)
                 (A) (A) (A) (A) (A) (A) (A) (A) (A) (A) (A) (A)
                 (A) (A) (A) (A) (A) (A) (A) (A) (A) (A) (A) (A)
                 (A) (A) (A) (A) (A) (A) (A) (A) (A) (A) (A) (A)
                 (A) (A) (A) (A) (A) (A) (A) (A) (A) (A) (A) (A)
                 (A) (A) (A) (A) (A) (A) (A)
 The electronic state is 1-A.
 Alpha  occ. eigenvalues --  -19.17437 -19.17434 -10.24746 -10.24745 -10.19515
 Alpha  occ. eigenvalues --  -10.19514 -10.19369 -10.19343 -10.19218 -10.19218
 Alpha  occ. eigenvalues --  -10.19143 -10.19143 -10.18868 -10.18867 -10.18218
 Alpha  occ. eigenvalues --  -10.18217 -10.18054 -10.18052 -10.17962 -10.17961
 Alpha  occ. eigenvalues --  -10.17584 -10.17583  -1.05708  -1.05608  -0.86885
 Alpha  occ. eigenvalues --   -0.85930  -0.81387  -0.80899  -0.78698  -0.75046
 Alpha  occ. eigenvalues --   -0.72967  -0.72934  -0.71857  -0.70490  -0.63057
 Alpha  occ. eigenvalues --   -0.62659  -0.60995  -0.60990  -0.59655  -0.56705
 Alpha  occ. eigenvalues --   -0.54721  -0.54469  -0.51705  -0.50183  -0.48891
 Alpha  occ. eigenvalues --   -0.48869  -0.46351  -0.46323  -0.44438  -0.43348
 Alpha  occ. eigenvalues --   -0.42647  -0.42113  -0.41646  -0.41444  -0.41413
 Alpha  occ. eigenvalues --   -0.39702  -0.39182  -0.38987  -0.38681  -0.36710
 Alpha  occ. eigenvalues --   -0.36105  -0.35805  -0.35084  -0.34003  -0.33752
 Alpha  occ. eigenvalues --   -0.33071  -0.31423  -0.30437  -0.29834  -0.28467
 Alpha  occ. eigenvalues --   -0.25364  -0.22766  -0.22498  -0.20617  -0.18948
 Alpha virt. eigenvalues --   -0.04411  -0.02027   0.00240   0.00542   0.03086
 Alpha virt. eigenvalues --    0.05014   0.06968   0.07033   0.09905   0.10130
 Alpha virt. eigenvalues --    0.10793   0.11414   0.11944   0.12106   0.14376
 Alpha virt. eigenvalues --    0.15428   0.17498   0.17529   0.18708   0.18824
 Alpha virt. eigenvalues --    0.19840   0.20143   0.20553   0.21659   0.23161
 Alpha virt. eigenvalues --    0.24439   0.25949   0.27417   0.27661   0.29541
 Alpha virt. eigenvalues --    0.30623   0.31599   0.32267   0.32768   0.33668
 Alpha virt. eigenvalues --    0.34816   0.36385   0.36959   0.37165   0.39630
 Alpha virt. eigenvalues --    0.40757   0.48616   0.49046   0.50206   0.50580
 Alpha virt. eigenvalues --    0.50672   0.51584   0.52606   0.52677   0.53455
 Alpha virt. eigenvalues --    0.54028   0.54603   0.55593   0.55950   0.55966
 Alpha virt. eigenvalues --    0.56128   0.56797   0.57134   0.57465   0.59401
 Alpha virt. eigenvalues --    0.59575   0.60329   0.60592   0.60700   0.60808
 Alpha virt. eigenvalues --    0.61499   0.61996   0.62551   0.62789   0.62893
 Alpha virt. eigenvalues --    0.63099   0.63463   0.63964   0.64791   0.64825
 Alpha virt. eigenvalues --    0.66031   0.67094   0.67472   0.67752   0.68709
 Alpha virt. eigenvalues --    0.70786   0.71919   0.73852   0.75584   0.77711
 Alpha virt. eigenvalues --    0.79092   0.79506   0.82049   0.82216   0.83907
 Alpha virt. eigenvalues --    0.84129   0.84325   0.84696   0.84986   0.86090
 Alpha virt. eigenvalues --    0.86545   0.87594   0.88539   0.89398   0.89405
 Alpha virt. eigenvalues --    0.90119   0.90586   0.90794   0.91608   0.93510
 Alpha virt. eigenvalues --    0.94125   0.94925   0.95407   0.95804   0.98495
 Alpha virt. eigenvalues --    0.98816   1.00046   1.01588   1.02437   1.02507
 Alpha virt. eigenvalues --    1.03592   1.06029   1.06435   1.06982   1.08655
 Alpha virt. eigenvalues --    1.09041   1.10701   1.12044   1.13870   1.14097
 Alpha virt. eigenvalues --    1.16539   1.17315   1.18309   1.21726   1.22880
 Alpha virt. eigenvalues --    1.23983   1.26000   1.26309   1.28738   1.29274
 Alpha virt. eigenvalues --    1.29902   1.31350   1.31629   1.34533   1.34783
 Alpha virt. eigenvalues --    1.35223   1.37972   1.38742   1.41012   1.41787
 Alpha virt. eigenvalues --    1.43058   1.43918   1.45963   1.46788   1.46884
 Alpha virt. eigenvalues --    1.48094   1.48619   1.49206   1.50190   1.50800
 Alpha virt. eigenvalues --    1.51822   1.51881   1.53774   1.54268   1.57840
 Alpha virt. eigenvalues --    1.61184   1.63174   1.71284   1.71505   1.74430
 Alpha virt. eigenvalues --    1.76368   1.76391   1.77500   1.79011   1.79488
 Alpha virt. eigenvalues --    1.79636   1.80149   1.80799   1.83104   1.84414
 Alpha virt. eigenvalues --    1.85308   1.86680   1.89678   1.90034   1.90359
 Alpha virt. eigenvalues --    1.91565   1.92045   1.92830   1.92852   1.94398
 Alpha virt. eigenvalues --    1.94645   1.96364   1.98387   1.98979   2.00299
 Alpha virt. eigenvalues --    2.01766   2.02347   2.04550   2.05800   2.06169
 Alpha virt. eigenvalues --    2.06357   2.07529   2.07879   2.14266   2.14764
 Alpha virt. eigenvalues --    2.15369   2.16013   2.19563   2.20603   2.21784
 Alpha virt. eigenvalues --    2.22337   2.23291   2.25884   2.27743   2.28984
 Alpha virt. eigenvalues --    2.30043   2.31989   2.33085   2.33544   2.33923
 Alpha virt. eigenvalues --    2.34356   2.35724   2.36147   2.36535   2.39351
 Alpha virt. eigenvalues --    2.40590   2.41838   2.45812   2.48709   2.50143
 Alpha virt. eigenvalues --    2.50284   2.56451   2.58462   2.60560   2.60970
 Alpha virt. eigenvalues --    2.61915   2.63845   2.64204   2.64781   2.65717
 Alpha virt. eigenvalues --    2.67059   2.68390   2.68489   2.70404   2.74097
 Alpha virt. eigenvalues --    2.75164   2.76895   2.79989   2.81951   2.83643
 Alpha virt. eigenvalues --    2.85127   2.86683   2.87043   2.88043   2.90367
 Alpha virt. eigenvalues --    2.92315   2.97409   3.02968   3.05542   3.06044
 Alpha virt. eigenvalues --    3.13426   3.19346   3.34807   3.38927   3.46775
 Alpha virt. eigenvalues --    3.49148   3.94796   4.05231   4.09791   4.10271
 Alpha virt. eigenvalues --    4.10889   4.11371   4.14555   4.15411   4.15773
 Alpha virt. eigenvalues --    4.16559   4.21933   4.28017   4.30333   4.31168
 Alpha virt. eigenvalues --    4.40224   4.40938   4.43469   4.48650   4.56211
 Alpha virt. eigenvalues --    4.62061   4.79201   4.88156
          Condensed to atoms (all electrons):
               1          2          3          4          5          6
     1  C    4.908767   0.522267  -0.005612  -0.038607  -0.023511   0.495673
     2  C    0.522267   5.086252   0.453736  -0.043798  -0.066014  -0.019887
     3  C   -0.005612   0.453736   4.836485   0.450607  -0.031631  -0.037649
     4  C   -0.038607  -0.043798   0.450607   4.751516   0.455102  -0.006889
     5  C   -0.023511  -0.066014  -0.031631   0.455102   5.082357   0.521818
     6  C    0.495673  -0.019887  -0.037649  -0.006889   0.521818   4.906611
     7  H    0.357133  -0.038504   0.003209   0.000953   0.004590  -0.043562
     8  H   -0.046258   0.343720  -0.031728   0.005669   0.000568   0.004775
     9  C    0.007843  -0.082296   0.394026  -0.015191   0.012442  -0.000635
    10  C   -0.000411   0.014581  -0.021843   0.437174  -0.082172   0.008002
    11  H    0.004709   0.000504   0.004256  -0.044194   0.354633  -0.045657
    12  H   -0.040925   0.004224   0.001027   0.002823  -0.037520   0.355414
    13  C    0.000065  -0.000800  -0.055855  -0.000207   0.009248  -0.000436
    14  C   -0.000220   0.010637   0.011593  -0.055666  -0.000660   0.000037
    15  H    0.000010  -0.000196   0.004679  -0.037935  -0.008525   0.000215
    16  H   -0.000000   0.000014   0.000870   0.002522  -0.000205   0.000004
    17  C    0.000000   0.000000  -0.000001   0.000000  -0.000000  -0.000000
    18  C   -0.000000   0.000001  -0.000001  -0.000000   0.000000  -0.000000
    19  C   -0.000002   0.000010   0.000085  -0.000000  -0.000000   0.000000
    20  C    0.000044  -0.000350  -0.000688   0.000084  -0.000001  -0.000001
    21  C   -0.000001   0.000013  -0.000354   0.000010   0.000001   0.000000
    22  C   -0.000000  -0.000001   0.000044  -0.000002  -0.000000   0.000000
    23  H   -0.000000  -0.000001   0.000000   0.000000  -0.000000   0.000000
    24  H    0.000000  -0.000000   0.000000  -0.000000  -0.000000   0.000000
    25  H   -0.000000   0.000000  -0.000000   0.000000  -0.000000   0.000000
    26  C    0.000001  -0.000062  -0.000011   0.000000  -0.000000   0.000000
    27  C    0.001332  -0.020961  -0.065314   0.008108  -0.000059  -0.000035
    28  H    0.000002  -0.000010  -0.000259  -0.000052  -0.000003   0.000000
    29  H   -0.000000  -0.000000  -0.000000   0.000000   0.000000   0.000000
    30  C   -0.000016   0.002647  -0.011487  -0.000043  -0.000015  -0.000003
    31  C   -0.000057  -0.001140   0.001143   0.000011  -0.000000   0.000000
    32  H    0.000001   0.000037  -0.000013  -0.000000   0.000000  -0.000000
    33  O    0.000000  -0.000056   0.002212   0.000266   0.000000  -0.000000
    34  H   -0.000000   0.000006   0.000083  -0.000105  -0.000001   0.000000
    35  O   -0.000937  -0.001296  -0.005527  -0.000465  -0.000001   0.000011
    36  H    0.000074   0.000445   0.000083   0.000009  -0.000000  -0.000002
               7          8          9         10         11         12
     1  C    0.357133  -0.046258   0.007843  -0.000411   0.004709  -0.040925
     2  C   -0.038504   0.343720  -0.082296   0.014581   0.000504   0.004224
     3  C    0.003209  -0.031728   0.394026  -0.021843   0.004256   0.001027
     4  C    0.000953   0.005669  -0.015191   0.437174  -0.044194   0.002823
     5  C    0.004590   0.000568   0.012442  -0.082172   0.354633  -0.037520
     6  C   -0.043562   0.004775  -0.000635   0.008002  -0.045657   0.355414
     7  H    0.604755  -0.006156  -0.000166   0.000007  -0.000203  -0.004826
     8  H   -0.006156   0.598254  -0.014786  -0.000192   0.000019  -0.000193
     9  C   -0.000166  -0.014786   5.247403  -0.061231  -0.000155   0.000015
    10  C    0.000007  -0.000192  -0.061231   5.119230  -0.009013  -0.000206
    11  H   -0.000203   0.000019  -0.000155  -0.009013   0.609270  -0.005409
    12  H   -0.004826  -0.000193   0.000015  -0.000206  -0.005409   0.600989
    13  C   -0.000000   0.000016  -0.030497   0.449697   0.000362   0.000004
    14  C    0.000003  -0.000176   0.419132   0.010506   0.000010  -0.000000
    15  H   -0.000000   0.000003   0.000534   0.349511   0.006858  -0.000014
    16  H   -0.000000   0.000000   0.003907  -0.027339  -0.000012  -0.000000
    17  C    0.000000   0.000000  -0.000035   0.000000   0.000000   0.000000
    18  C    0.000000  -0.000003  -0.000059  -0.000000  -0.000000  -0.000000
    19  C    0.000000  -0.000052   0.008110   0.000000   0.000000  -0.000000
    20  C   -0.000000  -0.000258  -0.065286  -0.000011  -0.000000   0.000000
    21  C   -0.000000  -0.000010  -0.020993  -0.000063   0.000000  -0.000000
    22  C   -0.000000   0.000002   0.001333   0.000001  -0.000000   0.000000
    23  H   -0.000000  -0.000001   0.000009  -0.000000   0.000000   0.000000
    24  H   -0.000000  -0.000000   0.000000   0.000000  -0.000000   0.000000
    25  H    0.000000   0.000000   0.000001  -0.000000   0.000000  -0.000000
    26  C   -0.000000   0.000043  -0.000962  -0.000000  -0.000000   0.000000
    27  C    0.000001   0.004195   0.305733  -0.000962   0.000001   0.000000
    28  H   -0.000000  -0.000006   0.004206   0.000043   0.000000  -0.000000
    29  H    0.000000  -0.000000   0.000001  -0.000000   0.000000  -0.000000
    30  C    0.000012   0.011107  -0.053508   0.000040   0.000000  -0.000000
    31  C   -0.000001   0.002412   0.007437  -0.000000   0.000000   0.000000
    32  H    0.000000   0.000013  -0.000106   0.000000  -0.000000  -0.000000
    33  O   -0.000000  -0.000001  -0.060915   0.005146  -0.000000   0.000000
    34  H    0.000000   0.000000   0.006725   0.000943  -0.000000  -0.000000
    35  O   -0.000018  -0.004950   0.003396   0.000010  -0.000000   0.000000
    36  H    0.000002   0.000467  -0.000390  -0.000000  -0.000000  -0.000000
              13         14         15         16         17         18
     1  C    0.000065  -0.000220   0.000010  -0.000000   0.000000  -0.000000
     2  C   -0.000800   0.010637  -0.000196   0.000014   0.000000   0.000001
     3  C   -0.055855   0.011593   0.004679   0.000870  -0.000001  -0.000001
     4  C   -0.000207  -0.055666  -0.037935   0.002522   0.000000  -0.000000
     5  C    0.009248  -0.000660  -0.008525  -0.000205  -0.000000   0.000000
     6  C   -0.000436   0.000037   0.000215   0.000004  -0.000000  -0.000000
     7  H   -0.000000   0.000003  -0.000000  -0.000000   0.000000   0.000000
     8  H    0.000016  -0.000176   0.000003   0.000000   0.000000  -0.000003
     9  C   -0.030497   0.419132   0.000534   0.003907  -0.000035  -0.000059
    10  C    0.449697   0.010506   0.349511  -0.027339   0.000000  -0.000000
    11  H    0.000362   0.000010   0.006858  -0.000012   0.000000  -0.000000
    12  H    0.000004  -0.000000  -0.000014  -0.000000   0.000000  -0.000000
    13  C    5.175104   0.414554  -0.040348   0.340989   0.000000  -0.000000
    14  C    0.414554   4.764524   0.003329  -0.042736  -0.000003  -0.000015
    15  H   -0.040348   0.003329   0.594813  -0.005373   0.000000  -0.000000
    16  H    0.340989  -0.042736  -0.005373   0.605198  -0.000000   0.000000
    17  C    0.000000  -0.000003   0.000000  -0.000000   4.906613   0.521795
    18  C   -0.000000  -0.000015  -0.000000   0.000000   0.521795   5.082410
    19  C    0.000011  -0.000043   0.000000  -0.000000  -0.006873   0.455102
    20  C    0.001143  -0.011488   0.000000  -0.000013  -0.037658  -0.031625
    21  C   -0.001142   0.002648  -0.000001   0.000037  -0.019881  -0.066022
    22  C   -0.000057  -0.000016  -0.000000   0.000001   0.495680  -0.023506
    23  H   -0.000000  -0.000000  -0.000000  -0.000000   0.000215  -0.008524
    24  H    0.000000  -0.000000   0.000000  -0.000000   0.355415  -0.037518
    25  H    0.000000   0.000000   0.000000  -0.000000  -0.045657   0.354633
    26  C   -0.000000   0.000041  -0.000000   0.000000   0.008003  -0.082202
    27  C    0.007431  -0.053493   0.000009  -0.000106  -0.000635   0.012445
    28  H    0.002419   0.011135  -0.000001   0.000013   0.004775   0.000567
    29  H   -0.000001   0.000012  -0.000000   0.000000  -0.043559   0.004589
    30  C   -0.000308   0.005995  -0.000000   0.000002   0.000037  -0.000661
    31  C    0.000002  -0.000309  -0.000000  -0.000000  -0.000436   0.009249
    32  H   -0.000000   0.000002  -0.000000   0.000000   0.000004  -0.000205
    33  O   -0.061573   0.263025  -0.000060  -0.005773   0.000011  -0.000001
    34  H   -0.005659  -0.031701  -0.000018   0.008691  -0.000002  -0.000000
    35  O   -0.000014   0.000028   0.000000  -0.000000  -0.000000   0.000000
    36  H    0.000000   0.000017  -0.000000   0.000000   0.000000  -0.000001
              19         20         21         22         23         24
     1  C   -0.000002   0.000044  -0.000001  -0.000000  -0.000000   0.000000
     2  C    0.000010  -0.000350   0.000013  -0.000001  -0.000001  -0.000000
     3  C    0.000085  -0.000688  -0.000354   0.000044   0.000000   0.000000
     4  C   -0.000000   0.000084   0.000010  -0.000002   0.000000  -0.000000
     5  C   -0.000000  -0.000001   0.000001  -0.000000  -0.000000  -0.000000
     6  C    0.000000  -0.000001   0.000000   0.000000   0.000000   0.000000
     7  H    0.000000  -0.000000  -0.000000  -0.000000  -0.000000  -0.000000
     8  H   -0.000052  -0.000258  -0.000010   0.000002  -0.000001  -0.000000
     9  C    0.008110  -0.065286  -0.020993   0.001333   0.000009   0.000000
    10  C    0.000000  -0.000011  -0.000063   0.000001  -0.000000   0.000000
    11  H    0.000000  -0.000000   0.000000  -0.000000   0.000000  -0.000000
    12  H   -0.000000   0.000000  -0.000000   0.000000   0.000000   0.000000
    13  C    0.000011   0.001143  -0.001142  -0.000057  -0.000000   0.000000
    14  C   -0.000043  -0.011488   0.002648  -0.000016  -0.000000  -0.000000
    15  H    0.000000   0.000000  -0.000001  -0.000000  -0.000000   0.000000
    16  H   -0.000000  -0.000013   0.000037   0.000001  -0.000000  -0.000000
    17  C   -0.006873  -0.037658  -0.019881   0.495680   0.000215   0.355415
    18  C    0.455102  -0.031625  -0.066022  -0.023506  -0.008524  -0.037518
    19  C    4.751475   0.450600  -0.043775  -0.038616  -0.037933   0.002823
    20  C    0.450600   4.836467   0.453757  -0.005616   0.004680   0.001027
    21  C   -0.043775   0.453757   5.086287   0.522233  -0.000196   0.004223
    22  C   -0.038616  -0.005616   0.522233   4.908831   0.000010  -0.040924
    23  H   -0.037933   0.004680  -0.000196   0.000010   0.594818  -0.000014
    24  H    0.002823   0.001027   0.004223  -0.040924  -0.000014   0.600987
    25  H   -0.044192   0.004256   0.000504   0.004709   0.006856  -0.005410
    26  C    0.437157  -0.021838   0.014585  -0.000411   0.349505  -0.000206
    27  C   -0.015201   0.393919  -0.082293   0.007843   0.000534   0.000015
    28  H    0.005672  -0.031714   0.343682  -0.046280   0.000003  -0.000193
    29  H    0.000953   0.003210  -0.038509   0.357130  -0.000000  -0.004826
    30  C   -0.055682   0.011659   0.010637  -0.000220   0.003330  -0.000000
    31  C   -0.000199  -0.055871  -0.000800   0.000065  -0.040347   0.000004
    32  H    0.002523   0.000869   0.000014  -0.000000  -0.005375  -0.000000
    33  O   -0.000466  -0.005538  -0.001252  -0.000935   0.000000   0.000000
    34  H    0.000009   0.000083   0.000447   0.000074  -0.000000  -0.000000
    35  O    0.000265   0.002216  -0.000056   0.000000  -0.000060   0.000000
    36  H   -0.000106   0.000084   0.000006  -0.000000  -0.000018  -0.000000
              25         26         27         28         29         30
     1  C   -0.000000   0.000001   0.001332   0.000002  -0.000000  -0.000016
     2  C    0.000000  -0.000062  -0.020961  -0.000010  -0.000000   0.002647
     3  C   -0.000000  -0.000011  -0.065314  -0.000259  -0.000000  -0.011487
     4  C    0.000000   0.000000   0.008108  -0.000052   0.000000  -0.000043
     5  C   -0.000000  -0.000000  -0.000059  -0.000003   0.000000  -0.000015
     6  C    0.000000   0.000000  -0.000035   0.000000   0.000000  -0.000003
     7  H    0.000000  -0.000000   0.000001  -0.000000   0.000000   0.000012
     8  H    0.000000   0.000043   0.004195  -0.000006  -0.000000   0.011107
     9  C    0.000001  -0.000962   0.305733   0.004206   0.000001  -0.053508
    10  C   -0.000000  -0.000000  -0.000962   0.000043  -0.000000   0.000040
    11  H    0.000000  -0.000000   0.000001   0.000000   0.000000   0.000000
    12  H   -0.000000   0.000000   0.000000  -0.000000  -0.000000  -0.000000
    13  C    0.000000  -0.000000   0.007431   0.002419  -0.000001  -0.000308
    14  C    0.000000   0.000041  -0.053493   0.011135   0.000012   0.005995
    15  H    0.000000  -0.000000   0.000009  -0.000001  -0.000000  -0.000000
    16  H   -0.000000   0.000000  -0.000106   0.000013   0.000000   0.000002
    17  C   -0.045657   0.008003  -0.000635   0.004775  -0.043559   0.000037
    18  C    0.354633  -0.082202   0.012445   0.000567   0.004589  -0.000661
    19  C   -0.044192   0.437157  -0.015201   0.005672   0.000953  -0.055682
    20  C    0.004256  -0.021838   0.393919  -0.031714   0.003210   0.011659
    21  C    0.000504   0.014585  -0.082293   0.343682  -0.038509   0.010637
    22  C    0.004709  -0.000411   0.007843  -0.046280   0.357130  -0.000220
    23  H    0.006856   0.349505   0.000534   0.000003  -0.000000   0.003330
    24  H   -0.005410  -0.000206   0.000015  -0.000193  -0.004826  -0.000000
    25  H    0.609266  -0.009013  -0.000155   0.000019  -0.000203   0.000010
    26  C   -0.009013   5.119252  -0.061247  -0.000192   0.000007   0.010525
    27  C   -0.000155  -0.061247   5.247427  -0.014802  -0.000166   0.419066
    28  H    0.000019  -0.000192  -0.014802   0.598351  -0.006156  -0.000176
    29  H   -0.000203   0.000007  -0.000166  -0.006156   0.604767   0.000003
    30  C    0.000010   0.010525   0.419066  -0.000176   0.000003   4.764498
    31  C    0.000362   0.449710  -0.030428   0.000016  -0.000000   0.414491
    32  H   -0.000012  -0.027331   0.003908   0.000000  -0.000000  -0.042757
    33  O   -0.000000   0.000010   0.003428  -0.004975  -0.000018   0.000028
    34  H   -0.000000  -0.000000  -0.000387   0.000465   0.000002   0.000017
    35  O   -0.000000   0.005148  -0.060916  -0.000001  -0.000000   0.263138
    36  H   -0.000000   0.000948   0.006714   0.000000   0.000000  -0.031766
              31         32         33         34         35         36
     1  C   -0.000057   0.000001   0.000000  -0.000000  -0.000937   0.000074
     2  C   -0.001140   0.000037  -0.000056   0.000006  -0.001296   0.000445
     3  C    0.001143  -0.000013   0.002212   0.000083  -0.005527   0.000083
     4  C    0.000011  -0.000000   0.000266  -0.000105  -0.000465   0.000009
     5  C   -0.000000   0.000000   0.000000  -0.000001  -0.000001  -0.000000
     6  C    0.000000  -0.000000  -0.000000   0.000000   0.000011  -0.000002
     7  H   -0.000001   0.000000  -0.000000   0.000000  -0.000018   0.000002
     8  H    0.002412   0.000013  -0.000001   0.000000  -0.004950   0.000467
     9  C    0.007437  -0.000106  -0.060915   0.006725   0.003396  -0.000390
    10  C   -0.000000   0.000000   0.005146   0.000943   0.000010  -0.000000
    11  H    0.000000  -0.000000  -0.000000  -0.000000  -0.000000  -0.000000
    12  H    0.000000  -0.000000   0.000000  -0.000000   0.000000  -0.000000
    13  C    0.000002  -0.000000  -0.061573  -0.005659  -0.000014   0.000000
    14  C   -0.000309   0.000002   0.263025  -0.031701   0.000028   0.000017
    15  H   -0.000000  -0.000000  -0.000060  -0.000018   0.000000  -0.000000
    16  H   -0.000000   0.000000  -0.005773   0.008691  -0.000000   0.000000
    17  C   -0.000436   0.000004   0.000011  -0.000002  -0.000000   0.000000
    18  C    0.009249  -0.000205  -0.000001  -0.000000   0.000000  -0.000001
    19  C   -0.000199   0.002523  -0.000466   0.000009   0.000265  -0.000106
    20  C   -0.055871   0.000869  -0.005538   0.000083   0.002216   0.000084
    21  C   -0.000800   0.000014  -0.001252   0.000447  -0.000056   0.000006
    22  C    0.000065  -0.000000  -0.000935   0.000074   0.000000  -0.000000
    23  H   -0.040347  -0.005375   0.000000  -0.000000  -0.000060  -0.000018
    24  H    0.000004  -0.000000   0.000000  -0.000000   0.000000  -0.000000
    25  H    0.000362  -0.000012  -0.000000  -0.000000  -0.000000  -0.000000
    26  C    0.449710  -0.027331   0.000010  -0.000000   0.005148   0.000948
    27  C   -0.030428   0.003908   0.003428  -0.000387  -0.060916   0.006714
    28  H    0.000016   0.000000  -0.004975   0.000465  -0.000001   0.000000
    29  H   -0.000000  -0.000000  -0.000018   0.000002  -0.000000   0.000000
    30  C    0.414491  -0.042757   0.000028   0.000017   0.263138  -0.031766
    31  C    5.175175   0.340979  -0.000014   0.000000  -0.061578  -0.005656
    32  H    0.340979   0.605215  -0.000000   0.000000  -0.005777   0.008699
    33  O   -0.000014  -0.000000   8.255932   0.241895   0.000000  -0.000000
    34  H    0.000000   0.000000   0.241895   0.372294  -0.000000  -0.000000
    35  O   -0.061578  -0.005777   0.000000  -0.000000   8.255809   0.241959
    36  H   -0.005656   0.008699  -0.000000  -0.000000   0.241959   0.372268
 Mulliken charges:
               1
     1  C   -0.141363
     2  C   -0.163720
     3  C    0.103834
     4  C    0.128299
     5  C   -0.190441
     6  C   -0.137803
     7  H    0.122772
     8  H    0.133508
     9  C   -0.015041
    10  C   -0.191450
    11  H    0.124024
    12  H    0.124598
    13  C   -0.204147
    14  C    0.279298
    15  H    0.132509
    16  H    0.119310
    17  C   -0.137807
    18  C   -0.190448
    19  C    0.128344
    20  C    0.103861
    21  C   -0.163736
    22  C   -0.141371
    23  H    0.132508
    24  H    0.124598
    25  H    0.124027
    26  C   -0.191460
    27  C   -0.014950
    28  H    0.133453
    29  H    0.122763
    30  C    0.279399
    31  C   -0.204217
    32  H    0.119312
    33  O   -0.630378
    34  H    0.406138
    35  O   -0.630386
    36  H    0.406162
 Sum of Mulliken charges =  -0.00000
 Mulliken charges with hydrogens summed into heavy atoms:
               1
     1  C   -0.018591
     2  C   -0.030212
     3  C    0.103834
     4  C    0.128299
     5  C   -0.066418
     6  C   -0.013204
     9  C   -0.015041
    10  C   -0.058941
    13  C   -0.084838
    14  C    0.279298
    17  C   -0.013209
    18  C   -0.066421
    19  C    0.128344
    20  C    0.103861
    21  C   -0.030283
    22  C   -0.018608
    26  C   -0.058952
    27  C   -0.014950
    30  C    0.279399
    31  C   -0.084905
    33  O   -0.224240
    35  O   -0.224224
 Electronic spatial extent (au):  <R**2>=           5988.3808
 Charge=              0.0000 electrons
 Dipole moment (field-independent basis, Debye):
    X=             -0.0020    Y=             -0.0005    Z=             -0.1539  Tot=              0.1539
 Quadrupole moment (field-independent basis, Debye-Ang):
   XX=           -116.7743   YY=            -98.4419   ZZ=           -127.2843
   XY=             -5.8021   XZ=              0.0023   YZ=             -0.0144
 Traceless Quadrupole moment (field-independent basis, Debye-Ang):
   XX=             -2.6075   YY=             15.7249   ZZ=            -13.1174
   XY=             -5.8021   XZ=              0.0023   YZ=             -0.0144
 Octapole moment (field-independent basis, Debye-Ang**2):
  XXX=              0.0049  YYY=             -0.0446  ZZZ=            -18.8718  XYY=             -0.0348
  XXY=              0.0004  XXZ=             22.2794  XZZ=             -0.0035  YZZ=              0.0630
  YYZ=            -35.2338  XYZ=             18.9074
 Hexadecapole moment (field-independent basis, Debye-Ang**3):
 XXXX=          -4946.7192 YYYY=          -1704.1828 ZZZZ=           -818.2582 XXXY=            -69.7409
 XXXZ=             -0.0165 YYYX=            -17.8404 YYYZ=             -0.0863 ZZZX=              0.0011
 ZZZY=             -0.1591 XXYY=          -1159.9691 XXZZ=          -1039.9494 YYZZ=           -400.2997
 XXYZ=              0.0181 YYXZ=              0.0532 ZZXY=             33.4992
 N-N= 1.676493973746D+03 E-N=-5.493063514744D+03  KE= 9.122946145465D+02
 Unable to Open any file for archive entry.
 1\1\GINC-CCC175\SP\RB3LYP TD-FC\6-31G(d)\C20H14O2\ROOT\20-Feb-2025\0\\
 # td=(nstat=16) b3lyp/6-31g(d)\\binol | No.13\\0,1\C,0,-2.989607,-1.88
 4271,1.351387\C,0,-1.850146,-1.408861,0.740724\C,0,-1.824096,-0.156038
 ,0.063298\C,0,-3.023643,0.632746,0.140885\C,0,-4.19408,0.10288,0.74762
 1\C,0,-4.190933,-1.140621,1.332009\H,0,-2.958281,-2.841215,1.866332\H,
 0,-0.942809,-1.991929,0.810151\C,0,-0.652722,0.367833,-0.614734\C,0,-3
 .007066,1.972587,-0.319893\H,0,-5.089866,0.719876,0.762068\H,0,-5.0877
 29,-1.534905,1.801861\C,0,-1.852215,2.516554,-0.813343\C,0,-0.681184,1
 .728417,-0.928703\H,0,-3.913157,2.569353,-0.252051\H,0,-1.8233,3.55428
 2,-1.142272\C,0,4.190645,1.140835,1.332246\C,0,4.193968,-0.102742,0.74
 7966\C,0,3.02371,-0.632693,0.141046\C,0,1.824088,0.155969,0.063373\C,0
 ,1.849948,1.408871,0.740601\C,0,2.989299,1.884433,1.351368\H,0,3.91338
 7,-2.569197,-0.252236\H,0,5.087353,1.535154,1.802235\H,0,5.089798,-0.7
 1967,0.762698\C,0,3.007271,-1.972456,-0.319989\C,0,0.652861,-0.367896,
 -0.614902\H,0,0.942532,1.991861,0.8098\H,0,2.957868,2.841481,1.866115\
 C,0,0.681302,-1.72854,-0.92868\C,0,1.852462,-2.516487,-0.813436\H,0,1.
 823675,-3.554237,-1.142322\O,0,0.420539,2.273544,-1.537853\H,0,0.23777
 2,3.203042,-1.743127\O,0,-0.42058,-2.274104,-1.536783\H,0,-0.23608,-3.
 202545,-1.745224\\Version=ES64L-G16RevC.02\State=1-A\HF=-920.9974992\R
 MSD=6.679e-09\PG=C01 [X(C20H14O2)]\\@
 The archive entry for this job was punched.


 WE ARE REACHING THE STAGE WHERE THE PROBLEMS WE MUST SOLVE ARE 
 GOING TO BECOME INSOLUBLE WITHOUT COMPUTERS.
 I DO NOT FEAR COMPUTERS.  I FEAR THE LACK OF THEM.

                                   -- ISSAC ASIMOV
 Job cpu time:       0 days  1 hours  2 minutes 47.6 seconds.
 Elapsed time:       0 days  0 hours  8 minutes  6.0 seconds.
 File lengths (MBytes):  RWF=   1295 Int=      0 D2E=      0 Chk=     78 Scr=      1
 Normal termination of Gaussian 16 at Thu Feb 20 09:35:11 2025.
