 Entering Gaussian System, Link 0=/apl/gaussian/16c02/g16/._.g16
 Initial command:
 /apl/gaussian/16c02/g16/l1.exe "/lwork/users/ux8/8279370.ccpbs1/gaussian/Gau-4041370.inp" -scrdir="/lwork/users/ux8/8279370.ccpbs1/gaussian/"
 Default CPUs for threads: 88,89,90,91,92,93,94,95
 Default is to use a total of   8 processors:
                                8 via shared-memory
                                1 via Linda
 Entering Link 1 = /apl/gaussian/16c02/g16/l1.exe PID=   4041373.
  
 Copyright (c) 1988-2021, Gaussian, Inc.  All Rights Reserved.
  
 This is part of the Gaussian(R) 16 program.  It is based on
 the Gaussian(R) 09 system (copyright 2009, Gaussian, Inc.),
 the Gaussian(R) 03 system (copyright 2003, Gaussian, Inc.),
 the Gaussian(R) 98 system (copyright 1998, Gaussian, Inc.),
 the Gaussian(R) 94 system (copyright 1995, Gaussian, Inc.),
 the Gaussian 92(TM) system (copyright 1992, Gaussian, Inc.),
 the Gaussian 90(TM) system (copyright 1990, Gaussian, Inc.),
 the Gaussian 88(TM) system (copyright 1988, Gaussian, Inc.),
 the Gaussian 86(TM) system (copyright 1986, Carnegie Mellon
 University), and the Gaussian 82(TM) system (copyright 1983,
 Carnegie Mellon University). Gaussian is a federally registered
 trademark of Gaussian, Inc.
  
 This software contains proprietary and confidential information,
 including trade secrets, belonging to Gaussian, Inc.
  
 This software is provided under written license and may be
 used, copied, transmitted, or stored only in accord with that
 written license.
  
 The following legend is applicable only to US Government
 contracts under FAR:
  
                    RESTRICTED RIGHTS LEGEND
  
 Use, reproduction and disclosure by the US Government is
 subject to restrictions as set forth in subparagraphs (a)
 and (c) of the Commercial Computer Software - Restricted
 Rights clause in FAR 52.227-19.
  
 Gaussian, Inc.
 340 Quinnipiac St., Bldg. 40, Wallingford CT 06492
  
  
 ---------------------------------------------------------------
 Warning -- This program may not be used in any manner that
 competes with the business of Gaussian, Inc. or will provide
 assistance to any competitor of Gaussian, Inc.  The licensee
 of this program is prohibited from giving any competitor of
 Gaussian, Inc. access to this program.  By using this program,
 the user acknowledges that Gaussian, Inc. is engaged in the
 business of creating and licensing software in the field of
 computational chemistry and represents and warrants to the
 licensee that it is not a competitor of Gaussian, Inc. and that
 it will not use this program in any manner prohibited above.
 ---------------------------------------------------------------
  

 Cite this work as:
 Gaussian 16, Revision C.02,
 M. J. Frisch, G. W. Trucks, H. B. Schlegel, G. E. Scuseria, 
 M. A. Robb, J. R. Cheeseman, G. Scalmani, V. Barone, 
 G. A. Petersson, H. Nakatsuji, X. Li, M. Caricato, A. V. Marenich, 
 J. Bloino, B. G. Janesko, R. Gomperts, B. Mennucci, H. P. Hratchian, 
 J. V. Ortiz, A. F. Izmaylov, J. L. Sonnenberg, D. Williams-Young, 
 F. Ding, F. Lipparini, F. Egidi, J. Goings, B. Peng, A. Petrone, 
 T. Henderson, D. Ranasinghe, V. G. Zakrzewski, J. Gao, N. Rega, 
 G. Zheng, W. Liang, M. Hada, M. Ehara, K. Toyota, R. Fukuda, 
 J. Hasegawa, M. Ishida, T. Nakajima, Y. Honda, O. Kitao, H. Nakai, 
 T. Vreven, K. Throssell, J. A. Montgomery, Jr., J. E. Peralta, 
 F. Ogliaro, M. J. Bearpark, J. J. Heyd, E. N. Brothers, K. N. Kudin, 
 V. N. Staroverov, T. A. Keith, R. Kobayashi, J. Normand, 
 K. Raghavachari, A. P. Rendell, J. C. Burant, S. S. Iyengar, 
 J. Tomasi, M. Cossi, J. M. Millam, M. Klene, C. Adamo, R. Cammi, 
 J. W. Ochterski, R. L. Martin, K. Morokuma, O. Farkas, 
 J. B. Foresman, and D. J. Fox, Gaussian, Inc., Wallingford CT, 2019.
 
 ******************************************
 Gaussian 16:  ES64L-G16RevC.02  7-Dec-2021
                20-Feb-2025 
 ******************************************
 %chk=binol.016.tddft.chk
 %mem=9600MB
 SetSPE:  set environment variable "OMP_PROC_BIND" = "true"
 SetSPE:  set environment variable "OMP_PLACES" = "{88},{89},{90},{91},{92},{93},{94},{95}"
 ------------------------------
 # td=(nstat=16) b3lyp/6-31g(d)
 ------------------------------
 1/38=1,172=1/1;
 2/12=2,17=6,18=5,40=1/2;
 3/5=1,6=6,7=1,11=9,25=1,30=1,74=-5/1,2,3,8;
 4//1;
 5/5=2,38=5/2;
 8/6=1,10=2,108=16/1;
 9/41=16,42=1,70=2/14;
 6/7=2,8=2,9=2,10=2/1;
 99/5=1,9=1/99;
 -------------
 binol | No.16
 -------------
 Symbolic Z-matrix:
 Charge =  0 Multiplicity = 1
 C                    -2.86752  -1.8729    1.57233 
 C                    -1.75705  -1.39197   0.91584 
 C                    -1.79943  -0.17075   0.18613 
 C                    -3.03657   0.55734   0.18304 
 C                    -4.16715   0.02857   0.8615 
 C                    -4.09222  -1.16461   1.54082 
 H                    -2.80175  -2.80649   2.12531 
 H                    -0.82448  -1.94225   0.96219 
 C                    -0.65774   0.35421  -0.50858 
 C                    -3.09746   1.8085   -0.48111 
 H                    -5.09584   0.59469   0.83882 
 H                    -4.96202  -1.55875   2.05921 
 C                    -1.98991   2.32367  -1.10557 
 C                    -0.77049   1.60178  -1.11187 
 H                    -4.0336    2.36142  -0.4837 
 H                    -2.03827   3.28799  -1.60937 
 C                     4.09225   1.16459   1.54081 
 C                     4.16716  -0.02861   0.86152 
 C                     3.03658  -0.55735   0.18305 
 C                     1.79945   0.17075   0.18612 
 C                     1.75708   1.39198   0.9158 
 C                     2.86756   1.8729    1.57229 
 H                     4.03357  -2.36144  -0.48373 
 H                     4.96205   1.55872   2.0592 
 H                     5.09584  -0.59474   0.83887 
 C                     3.09745  -1.8085   -0.48113 
 C                     0.65775  -0.35423  -0.50858 
 H                     0.8245    1.94226   0.96211 
 H                     2.80181   2.80651   2.12524 
 C                     0.77045  -1.60178  -1.11191 
 C                     1.9899   -2.32366  -1.10563 
 H                     2.0383   -3.28794  -1.6095 
 O                     0.32407   2.10957  -1.75937 
 H                     0.09326   2.97431  -2.13174 
 O                    -0.3241   -2.10948  -1.75948 
 H                    -0.09355  -2.97454  -2.13128 
 
                          Input orientation:                          
 ---------------------------------------------------------------------
 Center     Atomic      Atomic             Coordinates (Angstroms)
 Number     Number       Type             X           Y           Z
 ---------------------------------------------------------------------
      1          6           0       -2.867522   -1.872896    1.572332
      2          6           0       -1.757053   -1.391971    0.915840
      3          6           0       -1.799434   -0.170754    0.186130
      4          6           0       -3.036572    0.557336    0.183040
      5          6           0       -4.167153    0.028574    0.861498
      6          6           0       -4.092224   -1.164607    1.540817
      7          1           0       -2.801754   -2.806490    2.125308
      8          1           0       -0.824477   -1.942247    0.962189
      9          6           0       -0.657740    0.354206   -0.508583
     10          6           0       -3.097459    1.808498   -0.481108
     11          1           0       -5.095840    0.594694    0.838818
     12          1           0       -4.962024   -1.558750    2.059208
     13          6           0       -1.989908    2.323668   -1.105573
     14          6           0       -0.770485    1.601779   -1.111870
     15          1           0       -4.033595    2.361418   -0.483698
     16          1           0       -2.038271    3.287988   -1.609366
     17          6           0        4.092246    1.164590    1.540808
     18          6           0        4.167161   -0.028608    0.861518
     19          6           0        3.036581   -0.557350    0.183048
     20          6           0        1.799454    0.170749    0.186117
     21          6           0        1.757082    1.391984    0.915801
     22          6           0        2.867556    1.872901    1.572291
     23          1           0        4.033573   -2.361442   -0.483732
     24          1           0        4.962047    1.558724    2.059204
     25          1           0        5.095839   -0.594742    0.838865
     26          6           0        3.097445   -1.808504   -0.481127
     27          6           0        0.657745   -0.354233   -0.508580
     28          1           0        0.824498    1.942256    0.962109
     29          1           0        2.801812    2.806512    2.125241
     30          6           0        0.770454   -1.601783   -1.111907
     31          6           0        1.989903   -2.323660   -1.105634
     32          1           0        2.038305   -3.287943   -1.609495
     33          8           0        0.324069    2.109575   -1.759371
     34          1           0        0.093261    2.974313   -2.131742
     35          8           0       -0.324104   -2.109485   -1.759479
     36          1           0       -0.093546   -2.974535   -2.131275
 ---------------------------------------------------------------------
                    Distance matrix (angstroms):
                    1          2          3          4          5
     1  C    0.000000
     2  C    1.376740   0.000000
     3  C    2.441241   1.423251   0.000000
     4  C    2.804414   2.444169   1.435491   0.000000
     5  C    2.410376   2.798121   2.470212   1.420601   0.000000
     6  C    1.415119   2.428027   2.842500   2.433731   1.375053
     7  H    1.087063   2.134263   3.422303   3.891384   3.391035
     8  H    2.133335   1.083813   2.165871   3.427587   3.881721
     9  C    3.764748   2.507310   1.435853   2.485648   3.781420
    10  C    4.221629   3.740475   2.459169   1.417817   2.472846
    11  H    3.404768   3.885906   3.446477   2.161487   1.087872
    12  H    2.173172   3.406897   3.928986   3.421285   2.141478
    13  C    5.054951   4.236308   2.815478   2.424037   3.725214
    14  C    4.865786   3.747995   2.425987   2.811193   4.231608
    15  H    4.849371   4.607524   3.442679   2.166404   2.696211
    16  H    6.119280   5.325201   3.904324   3.415521   4.610975
    17  C    7.593793   6.414116   6.191138   7.282330   8.364787
    18  C    7.307080   6.079311   6.006381   7.259300   8.334510
    19  C    6.206384   4.920620   4.851444   6.174602   7.259296
    20  C    5.280032   3.952636   3.615055   4.851454   6.006393
    21  C    5.698898   4.483252   3.952642   4.920640   6.079342
    22  C    6.849972   5.698888   5.280034   6.206405   7.307113
    23  H    7.217423   6.035729   6.266722   7.677942   8.647180
    24  H    8.562430   7.426990   7.226142   8.276513   9.333710
    25  H    8.098566   6.899538   6.939065   8.239751   9.283968
    26  C    6.308857   5.068646   5.206427   6.607911   7.612613
    27  C    4.366239   2.989502   2.560081   3.867464   5.030238
    28  H    5.344040   4.217062   3.457163   4.175262   5.346857
    29  H    7.371833   6.314520   5.813409   6.551158   7.607921
    30  C    4.529184   3.247163   3.215131   4.564223   5.561686
    31  C    5.565004   4.358220   4.545628   5.935172   6.878368
    32  H    6.016105   4.937284   5.260169   6.614660   7.457399
    33  O    6.094799   4.873258   3.673437   4.180468   5.600946
    34  H    6.780991   5.637008   4.341229   4.582123   5.982307
    35  O    4.198323   3.118574   3.117799   4.271159   5.119555
    36  H    4.756601   3.815321   4.017662   5.146996   5.879594
                    6          7          8          9         10
     6  C    0.000000
     7  H    2.168576   0.000000
     8  H    3.408475   2.451405   0.000000
     9  C    4.278144   4.639416   2.732154   0.000000
    10  C    3.730562   5.308386   4.617103   2.840414   0.000000
    11  H    2.143639   4.299528   4.969490   4.644357   2.684968
    12  H    1.086568   2.495594   4.297652   5.364682   4.611742
    13  C    4.857075   6.116879   4.881793   2.451499   1.371869
    14  C    5.071843   5.834228   4.106672   1.390361   2.419794
    15  H    4.066319   5.918751   5.559727   3.927584   1.087234
    16  H    5.828205   7.188418   5.953281   3.424130   2.140966
    17  C    8.509448   7.977365   5.844776   5.236324   7.496307
    18  C    8.364770   7.607862   5.346831   5.030248   7.612641
    19  C    7.282318   6.551119   4.175257   3.867466   6.607934
    20  C    6.191143   5.813392   3.457174   2.560091   5.206454
    21  C    6.414139   6.314513   4.217072   2.989518   5.068669
    22  C    7.593812   7.371811   5.344033   4.366255   6.308883
    23  H    8.459302   7.329860   5.085967   5.420681   8.260752
    24  H    9.469165   8.907080   6.851576   6.294950   8.454065
    25  H    9.232442   8.301731   6.072983   5.984964   8.639909
    26  C    7.496279   6.526104   4.181210   4.333530   7.173530
    27  C    5.236310   4.991900   2.623344   1.494117   4.333557
    28  H    5.844797   6.087144   4.220010   2.623331   4.181210
    29  H    7.977410   7.931314   6.087148   4.991927   6.526139
    30  C    5.556411   4.969059   2.638483   2.495923   5.195063
    31  C    6.733452   5.799318   3.513133   3.812801   6.583769
    32  H    7.212240   6.132432   4.076761   4.663252   7.322775
    33  O    6.412110   7.002085   5.014310   2.368489   3.664895
    34  H    6.938057   7.740883   5.881090   3.172319   3.776826
    35  O    5.097399   4.660057   2.772331   2.783133   4.967527
    36  H    5.722720   5.047884   3.342065   3.745926   5.884212
                   11         12         13         14         15
    11  H    0.000000
    12  H    2.478826   0.000000
    13  C    4.051768   5.824301   0.000000
    14  C    4.850577   6.132999   1.417094   0.000000
    15  H    2.449230   4.764039   2.136542   3.408744   0.000000
    16  H    4.753542   6.745194   1.089064   2.167506   2.471230
    17  C    9.232470   9.469167   6.733453   5.556437   8.459333
    18  C    9.283976   9.333692   6.878383   5.561724   8.647209
    19  C    8.239752   8.276500   5.935183   4.564253   7.677965
    20  C    6.939080   7.226148   4.545634   3.215152   6.266749
    21  C    6.899575   7.427018   4.358202   3.247162   6.035755
    22  C    8.098609   8.562455   5.564989   4.529191   7.217453
    23  H    9.686798   9.382517   7.656322   6.259445   9.347973
    24  H   10.177416  10.402203   7.676629   6.551297   9.382550
    25  H   10.260852  10.177385   7.906059   6.560780   9.686827
    26  C    8.639880   8.454036   6.583763   5.195070   8.260750
    27  C    5.984955   6.294934   3.812823   2.495953   5.420706
    28  H    6.073016   6.851606   3.513071   2.638425   5.085973
    29  H    8.301803   8.907133   5.799300   4.969062   7.329902
    30  C    6.560735   6.551269   4.798834   3.554898   6.259433
    31  C    7.906038   7.676627   6.118542   4.798839   7.656323
    32  H    8.483226   8.090371   6.926082   5.660946   8.369628
    33  O    6.198457   7.482041   2.414079   1.369366   4.547527
    34  H    6.435339   7.979262   2.411629   1.915736   4.485825
    35  O    6.069036   6.032908   4.780726   3.793697   5.947850
    36  H    6.825232   6.577741   5.720071   4.737096   6.834537
                   16         17         18         19         20
    16  H    0.000000
    17  C    7.212188   0.000000
    18  C    7.457376   1.375052   0.000000
    19  C    6.614642   2.433725   1.420599   0.000000
    20  C    5.260140   2.842499   2.470212   1.435486   0.000000
    21  C    4.937206   2.428031   2.798126   2.444166   1.423253
    22  C    6.016025   1.415119   2.410375   2.804405   2.441238
    23  H    8.369612   4.066338   2.696230   2.166411   3.442670
    24  H    8.090316   1.086568   2.141476   3.421279   3.928985
    25  H    8.483216   2.143635   1.087871   2.161490   3.446478
    26  C    7.322754   3.730568   2.472856   1.417822   2.459154
    27  C    4.663261   4.278155   3.781428   2.485652   1.435865
    28  H    4.076632   3.408494   3.881729   3.427576   2.165858
    29  H    6.132333   2.168569   3.391029   3.891375   3.422305
    30  C    5.660942   5.071885   4.231655   2.811242   2.426021
    31  C    6.926076   4.857097   3.725239   2.424064   2.815487
    32  H    7.737011   5.828219   4.610987   3.415539   3.904334
    33  O    2.644203   5.097385   5.119594   4.271206   3.117809
    34  H    2.216912   5.723164   5.879949   5.147235   4.017902
    35  O    5.665123   6.412145   5.600994   4.180519   3.673460
    36  H    6.578263   6.938112   5.982384   4.582201   4.341263
                   21         22         23         24         25
    21  C    0.000000
    22  C    1.376740   0.000000
    23  H    4.607528   4.849380   0.000000
    24  H    3.406901   2.173174   4.764062   0.000000
    25  H    3.885910   3.404764   2.449265   2.478819   0.000000
    26  C    3.740468   4.221625   1.087236   4.611751   2.684991
    27  C    2.507325   3.764760   3.927559   5.364693   4.644366
    28  H    1.083816   2.133358   5.559715   4.297677   4.969497
    29  H    2.134267   1.087063   5.918760   2.495586   4.299518
    30  C    3.748023   4.865818   3.408758   6.133042   4.850629
    31  C    4.236321   5.054966   2.136534   5.824324   4.051799
    32  H    5.325216   6.119292   2.471202   6.745206   4.753558
    33  O    3.118495   4.198251   5.947913   6.032892   6.069098
    34  H    3.815702   4.757066   6.834638   6.578221   6.825573
    35  O    4.873268   6.094816   4.547567   7.482078   6.198518
    36  H    5.637019   6.781015   4.485910   7.979322   6.435438
                   26         27         28         29         30
    26  C    0.000000
    27  C    2.840386   0.000000
    28  H    4.617079   2.732141   0.000000
    29  H    5.308383   4.639434   2.451446   0.000000
    30  C    2.419815   1.390355   4.106662   5.834262   0.000000
    31  C    1.371876   2.451481   4.881779   6.116896   1.417110
    32  H    2.140965   3.424122   5.953273   7.188434   2.167528
    33  O    4.967581   2.783194   2.772161   4.659951   3.793764
    34  H    5.884300   3.746000   3.342419   5.048397   4.737015
    35  O    3.664938   2.368477   5.014273   7.002102   1.369368
    36  H    3.776909   3.172311   5.881043   7.740900   1.915739
                   31         32         33         34         35
    31  C    0.000000
    32  H    1.089064   0.000000
    33  O    4.780789   5.665180   0.000000
    34  H    5.720023   6.578130   0.969383   0.000000
    35  O    2.414128   2.644283   4.268559   5.114467   0.000000
    36  H    2.411708   2.217040   5.114772   5.951780   0.969382
                   36
    36  H    0.000000
 Stoichiometry    C20H14O2
 Framework group  C1[X(C20H14O2)]
 Deg. of freedom   102
 Full point group                 C1      NOp   1
 Largest Abelian subgroup         C1      NOp   1
 Largest concise Abelian subgroup C1      NOp   1
                         Standard orientation:                         
 ---------------------------------------------------------------------
 Center     Atomic      Atomic             Coordinates (Angstroms)
 Number     Number       Type             X           Y           Z
 ---------------------------------------------------------------------
      1          6           0        2.867522   -1.872896   -1.572332
      2          6           0        1.757053   -1.391971   -0.915840
      3          6           0        1.799434   -0.170754   -0.186130
      4          6           0        3.036572    0.557336   -0.183040
      5          6           0        4.167153    0.028574   -0.861498
      6          6           0        4.092224   -1.164607   -1.540817
      7          1           0        2.801754   -2.806490   -2.125308
      8          1           0        0.824477   -1.942247   -0.962189
      9          6           0        0.657740    0.354206    0.508583
     10          6           0        3.097459    1.808498    0.481108
     11          1           0        5.095840    0.594694   -0.838818
     12          1           0        4.962024   -1.558750   -2.059208
     13          6           0        1.989908    2.323668    1.105573
     14          6           0        0.770485    1.601779    1.111870
     15          1           0        4.033595    2.361418    0.483698
     16          1           0        2.038271    3.287988    1.609366
     17          6           0       -4.092246    1.164590   -1.540808
     18          6           0       -4.167161   -0.028608   -0.861518
     19          6           0       -3.036581   -0.557350   -0.183048
     20          6           0       -1.799454    0.170749   -0.186117
     21          6           0       -1.757082    1.391984   -0.915801
     22          6           0       -2.867556    1.872901   -1.572291
     23          1           0       -4.033573   -2.361442    0.483732
     24          1           0       -4.962047    1.558724   -2.059204
     25          1           0       -5.095839   -0.594742   -0.838865
     26          6           0       -3.097445   -1.808504    0.481127
     27          6           0       -0.657745   -0.354233    0.508580
     28          1           0       -0.824498    1.942256   -0.962109
     29          1           0       -2.801812    2.806512   -2.125241
     30          6           0       -0.770454   -1.601783    1.111907
     31          6           0       -1.989903   -2.323660    1.105634
     32          1           0       -2.038305   -3.287943    1.609495
     33          8           0       -0.324069    2.109575    1.759371
     34          1           0       -0.093261    2.974313    2.131742
     35          8           0        0.324104   -2.109485    1.759479
     36          1           0        0.093546   -2.974535    2.131275
 ---------------------------------------------------------------------
 Rotational constants (GHZ):           0.4917019           0.2232038           0.1967098
 Standard basis: 6-31G(d) (6D, 7F)
 There are   358 symmetry adapted cartesian basis functions of A   symmetry.
 There are   358 symmetry adapted basis functions of A   symmetry.
   358 basis functions,   672 primitive gaussians,   358 cartesian basis functions
    75 alpha electrons       75 beta electrons
       nuclear repulsion energy      1673.8100831469 Hartrees.
 NAtoms=   36 NActive=   36 NUniq=   36 SFac= 1.00D+00 NAtFMM=   60 NAOKFM=F Big=F
 Integral buffers will be    131072 words long.
 Regular integral format.
 Two-electron integral symmetry is turned on.
 One-electron integrals computed using PRISM.
 NBasis=   358 RedAO= T EigKep=  2.34D-04  NBF=   358
 NBsUse=   358 1.00D-06 EigRej= -1.00D+00 NBFU=   358
 ExpMin= 1.61D-01 ExpMax= 5.48D+03 ExpMxC= 8.25D+02 IAcc=3 IRadAn=         5 AccDes= 0.00D+00
 Harris functional with IExCor=  402 and IRadAn=       5 diagonalized for initial guess.
 HarFok:  IExCor=  402 AccDes= 0.00D+00 IRadAn=         5 IDoV= 1 UseB2=F ITyADJ=14
 ICtDFT=  3500011 ScaDFX=  1.000000  1.000000  1.000000  1.000000
 FoFCou: FMM=F IPFlag=           0 FMFlag=      100000 FMFlg1=           0
         NFxFlg=           0 DoJE=T BraDBF=F KetDBF=T FulRan=T
         wScrn=  0.000000 ICntrl=       500 IOpCl=  0 I1Cent=   200000004 NGrid=           0
         NMat0=    1 NMatS0=      1 NMatT0=    0 NMatD0=    1 NMtDS0=    0 NMtDT0=    0
 Petite list used in FoFCou.
 Requested convergence on RMS density matrix=1.00D-08 within 128 cycles.
 Requested convergence on MAX density matrix=1.00D-06.
 Requested convergence on             energy=1.00D-06.
 No special actions if energy rises.
 Integral accuracy reduced to 1.0D-05 until final iterations.
 Initial convergence to 1.0D-05 achieved.  Increase integral accuracy.
 SCF Done:  E(RB3LYP) =  -921.013633184     A.U. after   14 cycles
            NFock= 14  Conv=0.63D-08     -V/T= 2.0095
 DoSCS=F DFT=T ScalE2(SS,OS)=  1.000000  1.000000
 ExpMin= 1.61D-01 ExpMax= 5.48D+03 ExpMxC= 8.25D+02 IAcc=3 IRadAn=         5 AccDes= 0.00D+00
 HarFok:  IExCor=  205 AccDes= 0.00D+00 IRadAn=         5 IDoV=-2 UseB2=F ITyADJ=14
 ICtDFT= 12500011 ScaDFX=  1.000000  1.000000  1.000000  1.000000
 GSVD:  LWork=        -660 too small for GESVD, short by        2750 words or        2750 for optimal perf.
 Range of M.O.s used for correlation:    23   358
 NBasis=   358 NAE=    75 NBE=    75 NFC=    22 NFV=     0
 NROrb=    336 NOA=    53 NOB=    53 NVA=   283 NVB=   283
 Orbital symmetries:
       Occupied  (A) (A) (A) (A) (A) (A) (A) (A) (A) (A) (A) (A)
                 (A) (A) (A) (A) (A) (A) (A) (A) (A) (A) (A) (A)
                 (A) (A) (A) (A) (A) (A) (A) (A) (A) (A) (A) (A)
                 (A) (A) (A) (A) (A) (A) (A) (A) (A) (A) (A) (A)
                 (A) (A) (A) (A) (A) (A) (A) (A) (A) (A) (A) (A)
                 (A) (A) (A) (A) (A) (A) (A) (A) (A) (A) (A) (A)
                 (A) (A) (A)
       Virtual   (A) (A) (A) (A) (A) (A) (A) (A) (A) (A) (A) (A)
                 (A) (A) (A) (A) (A) (A) (A) (A) (A) (A) (A) (A)
                 (A) (A) (A) (A) (A) (A) (A) (A) (A) (A) (A) (A)
                 (A) (A) (A) (A) (A) (A) (A) (A) (A) (A) (A) (A)
                 (A) (A) (A) (A) (A) (A) (A) (A) (A) (A) (A) (A)
                 (A) (A) (A) (A) (A) (A) (A) (A) (A) (A) (A) (A)
                 (A) (A) (A) (A) (A) (A) (A) (A) (A) (A) (A) (A)
                 (A) (A) (A) (A) (A) (A) (A) (A) (A) (A) (A) (A)
                 (A) (A) (A) (A) (A) (A) (A) (A) (A) (A) (A) (A)
                 (A) (A) (A) (A) (A) (A) (A) (A) (A) (A) (A) (A)
                 (A) (A) (A) (A) (A) (A) (A) (A) (A) (A) (A) (A)
                 (A) (A) (A) (A) (A) (A) (A) (A) (A) (A) (A) (A)
                 (A) (A) (A) (A) (A) (A) (A) (A) (A) (A) (A) (A)
                 (A) (A) (A) (A) (A) (A) (A) (A) (A) (A) (A) (A)
                 (A) (A) (A) (A) (A) (A) (A) (A) (A) (A) (A) (A)
                 (A) (A) (A) (A) (A) (A) (A) (A) (A) (A) (A) (A)
                 (A) (A) (A) (A) (A) (A) (A) (A) (A) (A) (A) (A)
                 (A) (A) (A) (A) (A) (A) (A) (A) (A) (A) (A) (A)
                 (A) (A) (A) (A) (A) (A) (A) (A) (A) (A) (A) (A)
                 (A) (A) (A) (A) (A) (A) (A) (A) (A) (A) (A) (A)
                 (A) (A) (A) (A) (A) (A) (A) (A) (A) (A) (A) (A)
                 (A) (A) (A) (A) (A) (A) (A) (A) (A) (A) (A) (A)
                 (A) (A) (A) (A) (A) (A) (A) (A) (A) (A) (A) (A)
                 (A) (A) (A) (A) (A) (A) (A)
    64 initial guesses have been made.
 Convergence on wavefunction:    0.001000000000000
 Iteration     1 Dimension    64 NMult     0 NNew     64
 CISAX will form    64 AO SS matrices at one time.
 New state      3 was old state      6
 New state      6 was old state      9
 New state      7 was old state      8
 New state      8 was old state      7
 New state      9 was old state     11
 New state     11 was old state     13
 New state     12 was old state     19
 New state     13 was old state     14
 New state     14 was old state     15
 New state     15 was old state     16
 New state     16 was old state     21
 Iteration     2 Dimension    96 NMult    64 NNew     32
 New state     12 was old state     13
 New state     13 was old state     12
 New state     14 was old state     15
 New state     15 was old state     14
 Iteration     3 Dimension   128 NMult    96 NNew     32
 Iteration     4 Dimension   160 NMult   128 NNew     32
 New state     14 was old state     15
 New state     15 was old state     14
 Iteration     5 Dimension   178 NMult   160 NNew     18
 Iteration     6 Dimension   184 NMult   178 NNew      6
 Iteration     7 Dimension   188 NMult   184 NNew      4
 ***********************************************************************
 Excited states from <AA,BB:AA,BB> singles matrix:
 ***********************************************************************
 
 Ground to excited state transition densities written to RWF  633
 Ground to excited state transition electric dipole moments (Au):
       state          X           Y           Z        Dip. S.      Osc.
         1         1.1852      0.5233      0.0000      1.6785      0.1509
         2        -0.0000      0.0000      0.0740      0.0055      0.0005
         3         0.0000      0.0000      0.2802      0.0785      0.0079
         4         0.2678      0.4003     -0.0000      0.2320      0.0242
         5         0.6631      0.2003      0.0000      0.4799      0.0523
         6        -0.0005     -0.0001      0.0238      0.0006      0.0001
         7         0.0001     -0.0002      0.2864      0.0820      0.0096
         8         0.2263     -0.5185     -0.0001      0.3201      0.0378
         9        -0.0001      0.0000     -0.1469      0.0216      0.0026
        10         0.2919     -0.2072     -0.0001      0.1281      0.0156
        11        -0.2588      0.1892     -0.0000      0.1028      0.0133
        12         1.0111     -0.0401      0.0000      1.0239      0.1379
        13         0.0000     -0.0000      0.7757      0.6018      0.0821
        14        -0.5029      0.8132     -0.0127      0.9144      0.1287
        15        -0.0232      0.0376      0.2743      0.0772      0.0109
        16        -0.0004      0.0003      0.5093      0.2594      0.0367
 Ground to excited state transition velocity dipole moments (Au):
       state          X           Y           Z        Dip. S.      Osc.
         1        -0.1716     -0.0719      0.0000      0.0346      0.1711
         2         0.0000     -0.0000     -0.0147      0.0002      0.0010
         3         0.0000     -0.0000     -0.0361      0.0013      0.0058
         4        -0.0541     -0.0613      0.0000      0.0067      0.0285
         5        -0.1174     -0.0366      0.0000      0.0151      0.0617
         6         0.0001      0.0000     -0.0013      0.0000      0.0000
         7        -0.0000      0.0000     -0.0538      0.0029      0.0110
         8        -0.0320      0.0929      0.0000      0.0096      0.0363
         9         0.0000     -0.0000      0.0283      0.0008      0.0030
        10        -0.0494      0.0291      0.0000      0.0033      0.0121
        11         0.0446     -0.0286      0.0000      0.0028      0.0096
        12        -0.2047      0.0118      0.0000      0.0420      0.1388
        13         0.0000      0.0000     -0.1535      0.0236      0.0767
        14         0.1026     -0.1686      0.0027      0.0389      0.1230
        15         0.0047     -0.0078     -0.0576      0.0034      0.0107
        16         0.0001     -0.0001     -0.1131      0.0128      0.0402
 Ground to excited state transition magnetic dipole moments (Au):
       state          X           Y           Z
         1         0.1056     -0.0303     -0.0000
         2         0.0000      0.0000     -0.2938
         3         0.0000      0.0001     -0.8299
         4        -0.2056      0.3086      0.0000
         5        -0.0087     -0.1125     -0.0000
         6         0.0000      0.0001     -0.0077
         7         0.0000     -0.0002     -0.6216
         8         0.1255     -0.4057      0.0003
         9        -0.0001      0.0001      0.3768
        10         0.0891     -0.1291      0.0002
        11        -0.0735      0.3505      0.0000
        12         0.3686     -0.7812     -0.0000
        13        -0.0000     -0.0000     -1.3651
        14        -0.1237      0.6132      0.0186
        15        -0.0058      0.0283     -0.4017
        16        -0.0000      0.0002     -0.6104
 Ground to excited state transition velocity quadrupole moments (Au):
       state          XX          YY          ZZ          XY          XZ          YZ
         1         0.0000     -0.0000      0.0000      0.0000      0.1159     -0.2144
         2        -0.0125     -0.0523      0.0039     -0.0582     -0.0000      0.0000
         3        -0.7511     -0.1337      0.0088     -0.5331      0.0000      0.0000
         4         0.0001     -0.0000      0.0000      0.0001     -0.0633     -0.0216
         5         0.0004     -0.0000     -0.0000      0.0001      0.1413     -0.0271
         6         0.6374     -0.0721     -0.0118      0.1296     -0.0001      0.0000
         7         0.1819     -0.0822     -0.0082     -0.2111      0.0001      0.0000
         8        -0.0001      0.0000      0.0000      0.0001      0.2344      0.0277
         9        -0.1803      0.0626     -0.0046      0.1071     -0.0001     -0.0000
        10        -0.0000      0.0000     -0.0000      0.0001      0.2281      0.0364
        11        -0.0000      0.0000      0.0000      0.0000     -0.1368      0.0256
        12         0.0000     -0.0000      0.0000     -0.0000      0.2643     -0.4585
        13         1.2202     -0.2284      0.0351     -0.6715     -0.0000      0.0000
        14        -0.0364      0.0024     -0.0018      0.0033     -0.6356     -0.0150
        15         0.7845     -0.0502      0.0376     -0.0719     -0.0294     -0.0006
        16         0.7785     -0.2377     -0.0937     -0.5016     -0.0003     -0.0001
 <0|del|b> * <b|rxdel|0> + <0|del|b> * <b|delr+rdel|0>
 Rotatory Strengths (R) in cgs (10**-40 erg-esu-cm/Gauss)
       state          XX          YY          ZZ    R(velocity)    E-M Angle
         1        27.5626     48.9392   -160.1179    -27.8720      141.25
         2        12.8722      8.6176     -0.0000      7.1633       90.00
         3       115.3471     25.1173     -0.0000     46.8215       90.00
         4       -51.4751     27.7848    -11.4557    -11.7153      104.87
         5        20.0845      9.0970     -6.9338      7.4159       68.25
         6        -0.3296      0.3714     -0.0000      0.0139       90.00
         7        89.9705     44.3623     -0.0000     44.7776       90.00
         8      -118.5397     -9.7690    -37.9618    -55.4235      178.19
         9        26.8724     14.9741     -0.0000     13.9488       90.00
        10       -20.1959    -12.0517      0.5422    -10.5685      155.08
        11       -25.3702     -3.8863    -19.1696    -16.1420      134.52
        12       -21.5537     32.2230   -307.0419    -98.7909      118.55
        13       539.9302    183.8784     -0.0000    241.2695       90.00
        14      -352.4760    -23.7634    -12.3381   -129.5258      159.93
        15        44.9479     31.7766     -0.0265     25.5660       12.93
        16       209.5375     20.4923      0.0000     76.6766       90.00
 1/2[<0|r|b>*<b|rxdel|0> + (<0|rxdel|b>*<b|r|0>)*]
 Rotatory Strengths (R) in cgs (10**-40 erg-esu-cm/Gauss)
       state          XX          YY          ZZ     R(length)
         1       -88.5192     11.2203      0.0000    -25.7663
         2         0.0000     -0.0000     15.3823      5.1274
         3        -0.0000     -0.0000    164.4102     54.8034
         4        38.9377    -87.3678      0.0000    -16.1433
         5         4.0997     15.9357      0.0000      6.6784
         6         0.0000      0.0000      0.1298      0.0433
         7        -0.0000     -0.0000    125.9055     41.9685
         8       -20.0868   -148.7572      0.0000    -56.2813
         9        -0.0000     -0.0000     39.1525     13.0508
        10       -18.3838    -18.9175      0.0000    -12.4338
        11       -13.4489    -46.8829      0.0000    -20.1106
        12      -263.5192    -22.1756      0.0000    -95.2316
        13         0.0000     -0.0000    748.8610    249.6203
        14       -43.9824   -352.6597      0.1676   -132.1582
        15        -0.0947     -0.7526     77.9399     25.6975
        16        -0.0000     -0.0000    219.8241     73.2747
  1/2[<0|del|b>*<b|r|0> + (<0|r|b>*<b|del|0>)*] (Au)
       state          X           Y           Z        Dip. S.   Osc.(frdel)
         1        -0.2033     -0.0376      0.0000      0.2409      0.1606
         2        -0.0000     -0.0000     -0.0011      0.0011      0.0007
         3         0.0000     -0.0000     -0.0101      0.0101      0.0067
         4        -0.0145     -0.0245     -0.0000      0.0390      0.0260
         5        -0.0779     -0.0073      0.0000      0.0852      0.0568
         6        -0.0000     -0.0000     -0.0000      0.0000      0.0000
         7        -0.0000     -0.0000     -0.0154      0.0154      0.0103
         8        -0.0072     -0.0481     -0.0000      0.0554      0.0369
         9        -0.0000     -0.0000     -0.0042      0.0042      0.0028
        10        -0.0144     -0.0060     -0.0000      0.0205      0.0136
        11        -0.0115     -0.0054     -0.0000      0.0169      0.0113
        12        -0.2070     -0.0005      0.0000      0.2074      0.1383
        13         0.0000     -0.0000     -0.1191      0.1191      0.0794
        14        -0.0516     -0.1371     -0.0000      0.1887      0.1258
        15        -0.0001     -0.0003     -0.0158      0.0162      0.0108
        16        -0.0000     -0.0000     -0.0576      0.0576      0.0384

 Excitation energies and oscillator strengths:
 
 Excited State   1:      Singlet-A      3.6686 eV  337.96 nm  f=0.1509  <S**2>=0.000
      75 -> 76         0.69258
 This state for optimization and/or second-order correction.
 Total Energy, E(TD-HF/TD-DFT) =  -920.878813430    
 Copying the excited state density for this state as the 1-particle RhoCI density.
 
 Excited State   2:      Singlet-A      3.8736 eV  320.08 nm  f=0.0005  <S**2>=0.000
      74 -> 76         0.55188
      75 -> 77        -0.43515
 
 Excited State   3:      Singlet-A      4.1056 eV  301.99 nm  f=0.0079  <S**2>=0.000
      72 -> 76         0.13697
      72 -> 78         0.11537
      73 -> 79        -0.10295
      74 -> 76         0.38725
      75 -> 77         0.52151
      75 -> 79        -0.13576
 
 Excited State   4:      Singlet-A      4.2589 eV  291.12 nm  f=0.0242  <S**2>=0.000
      72 -> 77         0.12458
      73 -> 76        -0.25967
      74 -> 77         0.53516
      74 -> 79        -0.11931
      75 -> 78        -0.31151
 
 Excited State   5:      Singlet-A      4.4472 eV  278.79 nm  f=0.0523  <S**2>=0.000
      73 -> 76         0.48218
      74 -> 77         0.41230
      75 -> 78         0.26372
 
 Excited State   6:      Singlet-A      4.4617 eV  277.89 nm  f=0.0001  <S**2>=0.000
      72 -> 76         0.50616
      73 -> 77        -0.14760
      74 -> 76        -0.16885
      74 -> 78        -0.19806
      75 -> 77        -0.14569
      75 -> 79        -0.35811
 
 Excited State   7:      Singlet-A      4.7932 eV  258.67 nm  f=0.0096  <S**2>=0.000
      72 -> 76         0.38631
      73 -> 77         0.49797
      75 -> 79         0.30849
 
 Excited State   8:      Singlet-A      4.8243 eV  257.00 nm  f=0.0378  <S**2>=0.000
      72 -> 77         0.44301
      73 -> 76         0.35534
      74 -> 77        -0.11435
      74 -> 79         0.12440
      75 -> 78        -0.37731
 
 Excited State   9:      Singlet-A      4.9092 eV  252.56 nm  f=0.0026  <S**2>=0.000
      73 -> 77         0.24596
      74 -> 78         0.52891
      75 -> 79        -0.39178
 
 Excited State  10:      Singlet-A      4.9540 eV  250.27 nm  f=0.0156  <S**2>=0.000
      72 -> 77        -0.37588
      74 -> 79         0.50704
      75 -> 78        -0.30084
 
 Excited State  11:      Singlet-A      5.2826 eV  234.70 nm  f=0.0133  <S**2>=0.000
      71 -> 76         0.53447
      75 -> 80        -0.43228
 
 Excited State  12:      Singlet-A      5.4957 eV  225.60 nm  f=0.1379  <S**2>=0.000
      71 -> 76         0.42864
      74 -> 79        -0.11855
      75 -> 80         0.51249
 
 Excited State  13:      Singlet-A      5.5711 eV  222.55 nm  f=0.0821  <S**2>=0.000
      70 -> 76         0.28217
      71 -> 77         0.36187
      72 -> 76         0.11470
      73 -> 77        -0.20781
      74 -> 78         0.19779
      74 -> 80        -0.27509
      75 -> 79         0.12451
      75 -> 81        -0.29808
 
 Excited State  14:      Singlet-A      5.7446 eV  215.83 nm  f=0.1287  <S**2>=0.000
      72 -> 77         0.13224
      72 -> 79         0.40886
      73 -> 78         0.51243
      74 -> 79         0.14729
      75 -> 78         0.11353
 
 Excited State  15:      Singlet-A      5.7448 eV  215.82 nm  f=0.0109  <S**2>=0.000
      71 -> 77        -0.16400
      72 -> 78         0.54225
      73 -> 79         0.23245
      74 -> 78         0.10374
      74 -> 80        -0.23426
      75 -> 81         0.19705
 
 Excited State  16:      Singlet-A      5.7772 eV  214.61 nm  f=0.0367  <S**2>=0.000
      71 -> 77        -0.14508
      72 -> 78         0.12420
      73 -> 77        -0.10643
      73 -> 79         0.28253
      74 -> 80         0.49654
      75 -> 81        -0.28950
 SavETr:  write IOETrn=   770 NScale= 10 NData=  16 NLR=1 NState=   16 LETran=     298.

 **********************************************************************

            Population analysis using the SCF Density.

 **********************************************************************

 Orbital symmetries:
       Occupied  (A) (A) (A) (A) (A) (A) (A) (A) (A) (A) (A) (A)
                 (A) (A) (A) (A) (A) (A) (A) (A) (A) (A) (A) (A)
                 (A) (A) (A) (A) (A) (A) (A) (A) (A) (A) (A) (A)
                 (A) (A) (A) (A) (A) (A) (A) (A) (A) (A) (A) (A)
                 (A) (A) (A) (A) (A) (A) (A) (A) (A) (A) (A) (A)
                 (A) (A) (A) (A) (A) (A) (A) (A) (A) (A) (A) (A)
                 (A) (A) (A)
       Virtual   (A) (A) (A) (A) (A) (A) (A) (A) (A) (A) (A) (A)
                 (A) (A) (A) (A) (A) (A) (A) (A) (A) (A) (A) (A)
                 (A) (A) (A) (A) (A) (A) (A) (A) (A) (A) (A) (A)
                 (A) (A) (A) (A) (A) (A) (A) (A) (A) (A) (A) (A)
                 (A) (A) (A) (A) (A) (A) (A) (A) (A) (A) (A) (A)
                 (A) (A) (A) (A) (A) (A) (A) (A) (A) (A) (A) (A)
                 (A) (A) (A) (A) (A) (A) (A) (A) (A) (A) (A) (A)
                 (A) (A) (A) (A) (A) (A) (A) (A) (A) (A) (A) (A)
                 (A) (A) (A) (A) (A) (A) (A) (A) (A) (A) (A) (A)
                 (A) (A) (A) (A) (A) (A) (A) (A) (A) (A) (A) (A)
                 (A) (A) (A) (A) (A) (A) (A) (A) (A) (A) (A) (A)
                 (A) (A) (A) (A) (A) (A) (A) (A) (A) (A) (A) (A)
                 (A) (A) (A) (A) (A) (A) (A) (A) (A) (A) (A) (A)
                 (A) (A) (A) (A) (A) (A) (A) (A) (A) (A) (A) (A)
                 (A) (A) (A) (A) (A) (A) (A) (A) (A) (A) (A) (A)
                 (A) (A) (A) (A) (A) (A) (A) (A) (A) (A) (A) (A)
                 (A) (A) (A) (A) (A) (A) (A) (A) (A) (A) (A) (A)
                 (A) (A) (A) (A) (A) (A) (A) (A) (A) (A) (A) (A)
                 (A) (A) (A) (A) (A) (A) (A) (A) (A) (A) (A) (A)
                 (A) (A) (A) (A) (A) (A) (A) (A) (A) (A) (A) (A)
                 (A) (A) (A) (A) (A) (A) (A) (A) (A) (A) (A) (A)
                 (A) (A) (A) (A) (A) (A) (A) (A) (A) (A) (A) (A)
                 (A) (A) (A) (A) (A) (A) (A) (A) (A) (A) (A) (A)
                 (A) (A) (A) (A) (A) (A) (A)
 The electronic state is 1-A.
 Alpha  occ. eigenvalues --  -19.17512 -19.17511 -10.24625 -10.24624 -10.19265
 Alpha  occ. eigenvalues --  -10.19265 -10.19149 -10.19149 -10.19082 -10.19082
 Alpha  occ. eigenvalues --  -10.18897 -10.18869 -10.18791 -10.18791 -10.18230
 Alpha  occ. eigenvalues --  -10.18230 -10.18088 -10.18088 -10.17977 -10.17977
 Alpha  occ. eigenvalues --  -10.17634 -10.17634  -1.05696  -1.05569  -0.86942
 Alpha  occ. eigenvalues --   -0.85901  -0.81369  -0.80840  -0.78633  -0.75061
 Alpha  occ. eigenvalues --   -0.72935  -0.72929  -0.71895  -0.70335  -0.62962
 Alpha  occ. eigenvalues --   -0.62451  -0.61144  -0.61027  -0.59732  -0.56713
 Alpha  occ. eigenvalues --   -0.54596  -0.54438  -0.51548  -0.50070  -0.49068
 Alpha  occ. eigenvalues --   -0.48764  -0.46375  -0.46280  -0.44190  -0.43068
 Alpha  occ. eigenvalues --   -0.42294  -0.42292  -0.41558  -0.41476  -0.41346
 Alpha  occ. eigenvalues --   -0.39750  -0.39306  -0.39297  -0.38711  -0.36615
 Alpha  occ. eigenvalues --   -0.36086  -0.35717  -0.35151  -0.34152  -0.33884
 Alpha  occ. eigenvalues --   -0.33183  -0.31302  -0.30263  -0.29925  -0.27814
 Alpha  occ. eigenvalues --   -0.25896  -0.22685  -0.22578  -0.20375  -0.19106
 Alpha virt. eigenvalues --   -0.03732  -0.02349   0.00390   0.00763   0.03310
 Alpha virt. eigenvalues --    0.04835   0.07031   0.07035   0.10123   0.10486
 Alpha virt. eigenvalues --    0.11005   0.11396   0.11963   0.12014   0.14387
 Alpha virt. eigenvalues --    0.15454   0.17532   0.17568   0.18767   0.19035
 Alpha virt. eigenvalues --    0.20002   0.20008   0.20518   0.21437   0.22768
 Alpha virt. eigenvalues --    0.24263   0.26287   0.27533   0.27781   0.29469
 Alpha virt. eigenvalues --    0.30999   0.31845   0.32372   0.32784   0.33414
 Alpha virt. eigenvalues --    0.34690   0.36571   0.36915   0.36929   0.39975
 Alpha virt. eigenvalues --    0.40922   0.47817   0.49603   0.49792   0.50342
 Alpha virt. eigenvalues --    0.51367   0.51814   0.52347   0.52497   0.53853
 Alpha virt. eigenvalues --    0.53885   0.54279   0.55037   0.55449   0.55938
 Alpha virt. eigenvalues --    0.55991   0.56649   0.57048   0.57158   0.59396
 Alpha virt. eigenvalues --    0.59828   0.60044   0.60598   0.60876   0.61053
 Alpha virt. eigenvalues --    0.61738   0.62042   0.62141   0.62605   0.62929
 Alpha virt. eigenvalues --    0.63038   0.63827   0.63999   0.64755   0.65305
 Alpha virt. eigenvalues --    0.66977   0.67013   0.67479   0.67899   0.68625
 Alpha virt. eigenvalues --    0.70763   0.72008   0.74422   0.75678   0.77007
 Alpha virt. eigenvalues --    0.79438   0.80379   0.81825   0.82273   0.83698
 Alpha virt. eigenvalues --    0.83931   0.84543   0.84825   0.85272   0.85881
 Alpha virt. eigenvalues --    0.86233   0.87060   0.87683   0.87719   0.88724
 Alpha virt. eigenvalues --    0.88890   0.90508   0.90763   0.91535   0.92647
 Alpha virt. eigenvalues --    0.94436   0.95039   0.95538   0.96356   0.98212
 Alpha virt. eigenvalues --    0.98598   1.00173   1.01891   1.03253   1.03948
 Alpha virt. eigenvalues --    1.04398   1.05592   1.06216   1.07220   1.08722
 Alpha virt. eigenvalues --    1.09515   1.10527   1.12304   1.13335   1.15733
 Alpha virt. eigenvalues --    1.16015   1.18314   1.19811   1.21389   1.22736
 Alpha virt. eigenvalues --    1.25282   1.25785   1.26475   1.27328   1.27329
 Alpha virt. eigenvalues --    1.29286   1.29734   1.32667   1.33652   1.37203
 Alpha virt. eigenvalues --    1.37293   1.40537   1.40904   1.41833   1.41983
 Alpha virt. eigenvalues --    1.42512   1.44550   1.46327   1.47018   1.47383
 Alpha virt. eigenvalues --    1.47876   1.48125   1.48759   1.49403   1.50538
 Alpha virt. eigenvalues --    1.50686   1.50981   1.51510   1.52047   1.54681
 Alpha virt. eigenvalues --    1.61028   1.65496   1.68921   1.71371   1.75065
 Alpha virt. eigenvalues --    1.75392   1.76681   1.77515   1.77950   1.78990
 Alpha virt. eigenvalues --    1.79171   1.79625   1.81714   1.83997   1.84626
 Alpha virt. eigenvalues --    1.86152   1.87458   1.89404   1.90935   1.91411
 Alpha virt. eigenvalues --    1.92210   1.92218   1.93466   1.93782   1.95006
 Alpha virt. eigenvalues --    1.95656   1.97809   1.98202   2.00181   2.01491
 Alpha virt. eigenvalues --    2.02632   2.02823   2.05300   2.05426   2.06389
 Alpha virt. eigenvalues --    2.07197   2.07458   2.08248   2.14631   2.15351
 Alpha virt. eigenvalues --    2.17002   2.17523   2.20586   2.21365   2.21964
 Alpha virt. eigenvalues --    2.22622   2.25287   2.26982   2.28069   2.29076
 Alpha virt. eigenvalues --    2.31318   2.32274   2.32845   2.34065   2.34451
 Alpha virt. eigenvalues --    2.35310   2.35463   2.35837   2.36838   2.38010
 Alpha virt. eigenvalues --    2.39403   2.40067   2.47472   2.47980   2.50476
 Alpha virt. eigenvalues --    2.53040   2.58337   2.58619   2.60390   2.61303
 Alpha virt. eigenvalues --    2.62108   2.63843   2.64625   2.65010   2.65540
 Alpha virt. eigenvalues --    2.66448   2.67724   2.68110   2.69970   2.75168
 Alpha virt. eigenvalues --    2.76249   2.76680   2.80065   2.81001   2.83246
 Alpha virt. eigenvalues --    2.85052   2.87950   2.89013   2.89103   2.90200
 Alpha virt. eigenvalues --    2.92170   2.97166   3.02659   3.05253   3.07400
 Alpha virt. eigenvalues --    3.15647   3.18564   3.36804   3.39394   3.47378
 Alpha virt. eigenvalues --    3.50599   3.96407   4.06865   4.09778   4.09994
 Alpha virt. eigenvalues --    4.10885   4.11468   4.14523   4.15451   4.15996
 Alpha virt. eigenvalues --    4.17112   4.23098   4.30268   4.30660   4.32501
 Alpha virt. eigenvalues --    4.41131   4.42823   4.44123   4.50216   4.59835
 Alpha virt. eigenvalues --    4.64753   4.82803   4.91934
          Condensed to atoms (all electrons):
               1          2          3          4          5          6
     1  C    4.904824   0.515250   0.001374  -0.038534  -0.019732   0.493336
     2  C    0.515250   5.136043   0.445953  -0.051916  -0.070411  -0.019618
     3  C    0.001374   0.445953   4.769910   0.445735  -0.024466  -0.039506
     4  C   -0.038534  -0.051916   0.445735   4.768330   0.448869  -0.005111
     5  C   -0.019732  -0.070411  -0.024466   0.448869   5.098078   0.518554
     6  C    0.493336  -0.019618  -0.039506  -0.005111   0.518554   4.909894
     7  H    0.356737  -0.037430   0.002729   0.001034   0.004419  -0.042722
     8  H   -0.047244   0.345074  -0.030388   0.005715   0.000476   0.004546
     9  C    0.008260  -0.092201   0.414163  -0.013839   0.014719  -0.000671
    10  C   -0.000709   0.016534  -0.018560   0.427139  -0.092032   0.008455
    11  H    0.004702   0.000492   0.004313  -0.043417   0.353915  -0.045820
    12  H   -0.041119   0.004166   0.001016   0.002778  -0.037411   0.356071
    13  C    0.000070  -0.001316  -0.055100   0.005299   0.009347  -0.000415
    14  C   -0.000336   0.013582   0.017987  -0.058522  -0.000865   0.000047
    15  H    0.000016  -0.000203   0.004271  -0.036634  -0.008145   0.000183
    16  H   -0.000000   0.000015   0.001143   0.002105  -0.000206   0.000004
    17  C    0.000000   0.000000  -0.000000   0.000000  -0.000000  -0.000000
    18  C    0.000000   0.000001  -0.000002  -0.000000   0.000000  -0.000000
    19  C   -0.000002   0.000017  -0.000024   0.000001  -0.000000   0.000000
    20  C    0.000034   0.000025   0.000617  -0.000024  -0.000001  -0.000000
    21  C   -0.000001   0.000026   0.000025   0.000017   0.000001   0.000000
    22  C   -0.000000  -0.000001   0.000034  -0.000002   0.000000   0.000000
    23  H   -0.000000  -0.000000   0.000000   0.000000  -0.000000  -0.000000
    24  H   -0.000000  -0.000000   0.000000  -0.000000  -0.000000   0.000000
    25  H   -0.000000  -0.000000  -0.000000   0.000000  -0.000000   0.000000
    26  C   -0.000000  -0.000045   0.000023   0.000000  -0.000000   0.000000
    27  C    0.001043  -0.024844  -0.052149   0.008846  -0.000080  -0.000015
    28  H    0.000002  -0.000018   0.000040  -0.000040  -0.000003   0.000000
    29  H   -0.000000  -0.000000  -0.000000   0.000000   0.000000   0.000000
    30  C    0.000033  -0.001142  -0.007218   0.000013  -0.000016  -0.000001
    31  C   -0.000022  -0.000718   0.000583   0.000009  -0.000000   0.000000
    32  H    0.000000   0.000010  -0.000005  -0.000000   0.000000  -0.000000
    33  O    0.000000  -0.000049   0.002379   0.000211   0.000000  -0.000000
    34  H   -0.000000   0.000006   0.000137  -0.000117  -0.000001   0.000000
    35  O   -0.000176   0.004368  -0.004066  -0.000407   0.000002   0.000004
    36  H    0.000013   0.000039   0.000056   0.000007  -0.000000  -0.000000
               7          8          9         10         11         12
     1  C    0.356737  -0.047244   0.008260  -0.000709   0.004702  -0.041119
     2  C   -0.037430   0.345074  -0.092201   0.016534   0.000492   0.004166
     3  C    0.002729  -0.030388   0.414163  -0.018560   0.004313   0.001016
     4  C    0.001034   0.005715  -0.013839   0.427139  -0.043417   0.002778
     5  C    0.004419   0.000476   0.014719  -0.092032   0.353915  -0.037411
     6  C   -0.042722   0.004546  -0.000671   0.008455  -0.045820   0.356071
     7  H    0.601707  -0.005549  -0.000192   0.000009  -0.000197  -0.004835
     8  H   -0.005549   0.591265  -0.016326  -0.000188   0.000019  -0.000184
     9  C   -0.000192  -0.016326   5.301538  -0.066858  -0.000165   0.000014
    10  C    0.000009  -0.000188  -0.066858   5.145797  -0.008805  -0.000196
    11  H   -0.000197   0.000019  -0.000165  -0.008805   0.609171  -0.005464
    12  H   -0.004835  -0.000184   0.000014  -0.000196  -0.005464   0.600799
    13  C   -0.000001   0.000014  -0.041556   0.446304   0.000309   0.000004
    14  C    0.000003   0.000027   0.438886   0.013165   0.000007  -0.000000
    15  H   -0.000000   0.000002   0.000786   0.349206   0.006743  -0.000013
    16  H   -0.000000   0.000000   0.003973  -0.027673  -0.000012  -0.000000
    17  C    0.000000   0.000000  -0.000015   0.000000   0.000000   0.000000
    18  C    0.000000  -0.000003  -0.000080  -0.000000  -0.000000  -0.000000
    19  C    0.000000  -0.000040   0.008846   0.000000   0.000000  -0.000000
    20  C   -0.000000   0.000040  -0.052149   0.000023  -0.000000   0.000000
    21  C   -0.000000  -0.000019  -0.024840  -0.000045  -0.000000  -0.000000
    22  C   -0.000000   0.000002   0.001043  -0.000000  -0.000000  -0.000000
    23  H   -0.000000  -0.000000   0.000012  -0.000000   0.000000   0.000000
    24  H   -0.000000  -0.000000   0.000000   0.000000  -0.000000   0.000000
    25  H    0.000000   0.000000   0.000001  -0.000000   0.000000  -0.000000
    26  C   -0.000000  -0.000016  -0.000870   0.000000  -0.000000   0.000000
    27  C   -0.000006   0.011432   0.255176  -0.000870   0.000001   0.000000
    28  H    0.000000  -0.000006   0.011430  -0.000016   0.000000  -0.000000
    29  H    0.000000   0.000000  -0.000006  -0.000000   0.000000  -0.000000
    30  C    0.000003   0.006400  -0.068517   0.000038   0.000000   0.000000
    31  C   -0.000000   0.001056   0.008045  -0.000000   0.000000   0.000000
    32  H    0.000000   0.000009  -0.000156   0.000000  -0.000000  -0.000000
    33  O   -0.000000  -0.000001  -0.059864   0.004883  -0.000000   0.000000
    34  H    0.000000   0.000000   0.007321   0.000894  -0.000000  -0.000000
    35  O   -0.000005  -0.002343   0.001403   0.000009   0.000000   0.000000
    36  H    0.000000   0.000114  -0.000332  -0.000000  -0.000000  -0.000000
              13         14         15         16         17         18
     1  C    0.000070  -0.000336   0.000016  -0.000000   0.000000   0.000000
     2  C   -0.001316   0.013582  -0.000203   0.000015   0.000000   0.000001
     3  C   -0.055100   0.017987   0.004271   0.001143  -0.000000  -0.000002
     4  C    0.005299  -0.058522  -0.036634   0.002105   0.000000  -0.000000
     5  C    0.009347  -0.000865  -0.008145  -0.000206  -0.000000   0.000000
     6  C   -0.000415   0.000047   0.000183   0.000004  -0.000000  -0.000000
     7  H   -0.000001   0.000003  -0.000000  -0.000000   0.000000   0.000000
     8  H    0.000014   0.000027   0.000002   0.000000   0.000000  -0.000003
     9  C   -0.041556   0.438886   0.000786   0.003973  -0.000015  -0.000080
    10  C    0.446304   0.013165   0.349206  -0.027673   0.000000  -0.000000
    11  H    0.000309   0.000007   0.006743  -0.000012   0.000000  -0.000000
    12  H    0.000004  -0.000000  -0.000013  -0.000000   0.000000  -0.000000
    13  C    5.183864   0.411448  -0.039921   0.339321   0.000000  -0.000000
    14  C    0.411448   4.715649   0.002917  -0.041007  -0.000001  -0.000016
    15  H   -0.039921   0.002917   0.594846  -0.005341  -0.000000  -0.000000
    16  H    0.339321  -0.041007  -0.005341   0.606320  -0.000000   0.000000
    17  C    0.000000  -0.000001  -0.000000  -0.000000   4.909891   0.518553
    18  C   -0.000000  -0.000016  -0.000000   0.000000   0.518553   5.098081
    19  C    0.000009   0.000013   0.000000  -0.000000  -0.005110   0.448870
    20  C    0.000583  -0.007218   0.000000  -0.000005  -0.039505  -0.024469
    21  C   -0.000718  -0.001144  -0.000000   0.000010  -0.019617  -0.070410
    22  C   -0.000022   0.000033  -0.000000   0.000000   0.493336  -0.019732
    23  H    0.000000  -0.000000  -0.000000  -0.000000   0.000183  -0.008145
    24  H    0.000000   0.000000   0.000000  -0.000000   0.356072  -0.037411
    25  H    0.000000   0.000000   0.000000  -0.000000  -0.045821   0.353915
    26  C   -0.000000   0.000038  -0.000000   0.000000   0.008454  -0.092032
    27  C    0.008046  -0.068519   0.000012  -0.000156  -0.000671   0.014719
    28  H    0.001056   0.006400  -0.000000   0.000009   0.004546   0.000476
    29  H   -0.000000   0.000003  -0.000000   0.000000  -0.042722   0.004419
    30  C   -0.000097   0.001799  -0.000000   0.000000   0.000047  -0.000865
    31  C    0.000004  -0.000097   0.000000  -0.000000  -0.000415   0.009347
    32  H   -0.000000   0.000000  -0.000000   0.000000   0.000004  -0.000206
    33  O   -0.064137   0.284872  -0.000058  -0.005315   0.000004   0.000002
    34  H   -0.006361  -0.032325  -0.000016   0.008025  -0.000000  -0.000000
    35  O   -0.000014  -0.000461   0.000000   0.000000  -0.000000   0.000000
    36  H   -0.000001   0.000010  -0.000000  -0.000000   0.000000  -0.000001
              19         20         21         22         23         24
     1  C   -0.000002   0.000034  -0.000001  -0.000000  -0.000000  -0.000000
     2  C    0.000017   0.000025   0.000026  -0.000001  -0.000000  -0.000000
     3  C   -0.000024   0.000617   0.000025   0.000034   0.000000   0.000000
     4  C    0.000001  -0.000024   0.000017  -0.000002   0.000000  -0.000000
     5  C   -0.000000  -0.000001   0.000001   0.000000  -0.000000  -0.000000
     6  C    0.000000  -0.000000   0.000000   0.000000  -0.000000   0.000000
     7  H    0.000000  -0.000000  -0.000000  -0.000000  -0.000000  -0.000000
     8  H   -0.000040   0.000040  -0.000019   0.000002  -0.000000  -0.000000
     9  C    0.008846  -0.052149  -0.024840   0.001043   0.000012   0.000000
    10  C    0.000000   0.000023  -0.000045  -0.000000  -0.000000   0.000000
    11  H    0.000000  -0.000000  -0.000000  -0.000000   0.000000  -0.000000
    12  H   -0.000000   0.000000  -0.000000  -0.000000   0.000000   0.000000
    13  C    0.000009   0.000583  -0.000718  -0.000022   0.000000   0.000000
    14  C    0.000013  -0.007218  -0.001144   0.000033  -0.000000   0.000000
    15  H    0.000000   0.000000  -0.000000  -0.000000  -0.000000   0.000000
    16  H   -0.000000  -0.000005   0.000010   0.000000  -0.000000  -0.000000
    17  C   -0.005110  -0.039505  -0.019617   0.493336   0.000183   0.356072
    18  C    0.448870  -0.024469  -0.070410  -0.019732  -0.008145  -0.037411
    19  C    4.768325   0.445742  -0.051920  -0.038534  -0.036634   0.002778
    20  C    0.445742   4.769903   0.445960   0.001374   0.004271   0.001016
    21  C   -0.051920   0.445960   5.136026   0.515249  -0.000203   0.004166
    22  C   -0.038534   0.001374   0.515249   4.904826   0.000016  -0.041119
    23  H   -0.036634   0.004271  -0.000203   0.000016   0.594848  -0.000013
    24  H    0.002778   0.001016   0.004166  -0.041119  -0.000013   0.600798
    25  H   -0.043416   0.004313   0.000492   0.004702   0.006743  -0.005464
    26  C    0.427133  -0.018561   0.016534  -0.000709   0.349206  -0.000196
    27  C   -0.013836   0.414167  -0.092199   0.008260   0.000786   0.000014
    28  H    0.005715  -0.030387   0.345074  -0.047241   0.000002  -0.000184
    29  H    0.001034   0.002729  -0.037429   0.356738  -0.000000  -0.004835
    30  C   -0.058519   0.017977   0.013582  -0.000336   0.002917  -0.000000
    31  C    0.005300  -0.055098  -0.001316   0.000070  -0.039922   0.000004
    32  H    0.002105   0.001143   0.000015  -0.000000  -0.005342  -0.000000
    33  O   -0.000406  -0.004064   0.004365  -0.000176   0.000000   0.000000
    34  H    0.000007   0.000056   0.000039   0.000013  -0.000000  -0.000000
    35  O    0.000211   0.002379  -0.000049   0.000000  -0.000058   0.000000
    36  H   -0.000117   0.000137   0.000006  -0.000000  -0.000016  -0.000000
              25         26         27         28         29         30
     1  C   -0.000000  -0.000000   0.001043   0.000002  -0.000000   0.000033
     2  C   -0.000000  -0.000045  -0.024844  -0.000018  -0.000000  -0.001142
     3  C   -0.000000   0.000023  -0.052149   0.000040  -0.000000  -0.007218
     4  C    0.000000   0.000000   0.008846  -0.000040   0.000000   0.000013
     5  C   -0.000000  -0.000000  -0.000080  -0.000003   0.000000  -0.000016
     6  C    0.000000   0.000000  -0.000015   0.000000   0.000000  -0.000001
     7  H    0.000000  -0.000000  -0.000006   0.000000   0.000000   0.000003
     8  H    0.000000  -0.000016   0.011432  -0.000006   0.000000   0.006400
     9  C    0.000001  -0.000870   0.255176   0.011430  -0.000006  -0.068517
    10  C   -0.000000   0.000000  -0.000870  -0.000016  -0.000000   0.000038
    11  H    0.000000  -0.000000   0.000001   0.000000   0.000000   0.000000
    12  H   -0.000000   0.000000   0.000000  -0.000000  -0.000000   0.000000
    13  C    0.000000  -0.000000   0.008046   0.001056  -0.000000  -0.000097
    14  C    0.000000   0.000038  -0.068519   0.006400   0.000003   0.001799
    15  H    0.000000  -0.000000   0.000012  -0.000000  -0.000000  -0.000000
    16  H   -0.000000   0.000000  -0.000156   0.000009   0.000000   0.000000
    17  C   -0.045821   0.008454  -0.000671   0.004546  -0.042722   0.000047
    18  C    0.353915  -0.092032   0.014719   0.000476   0.004419  -0.000865
    19  C   -0.043416   0.427133  -0.013836   0.005715   0.001034  -0.058519
    20  C    0.004313  -0.018561   0.414167  -0.030387   0.002729   0.017977
    21  C    0.000492   0.016534  -0.092199   0.345074  -0.037429   0.013582
    22  C    0.004702  -0.000709   0.008260  -0.047241   0.356738  -0.000336
    23  H    0.006743   0.349206   0.000786   0.000002  -0.000000   0.002917
    24  H   -0.005464  -0.000196   0.000014  -0.000184  -0.004835  -0.000000
    25  H    0.609170  -0.008805  -0.000165   0.000019  -0.000197   0.000007
    26  C   -0.008805   5.145791  -0.066857  -0.000188   0.000009   0.013162
    27  C   -0.000165  -0.066857   5.301550  -0.016325  -0.000192   0.438889
    28  H    0.000019  -0.000188  -0.016325   0.591253  -0.005548   0.000027
    29  H   -0.000197   0.000009  -0.000192  -0.005548   0.601704   0.000003
    30  C    0.000007   0.013162   0.438889   0.000027   0.000003   4.715650
    31  C    0.000309   0.446322  -0.041560   0.000014  -0.000001   0.411445
    32  H   -0.000012  -0.027673   0.003973   0.000000  -0.000000  -0.041006
    33  O    0.000000   0.000008   0.001401  -0.002342  -0.000005  -0.000461
    34  H   -0.000000  -0.000000  -0.000333   0.000114   0.000000   0.000010
    35  O   -0.000000   0.004882  -0.059867  -0.000001  -0.000000   0.284877
    36  H   -0.000000   0.000894   0.007322   0.000000   0.000000  -0.032320
              31         32         33         34         35         36
     1  C   -0.000022   0.000000   0.000000  -0.000000  -0.000176   0.000013
     2  C   -0.000718   0.000010  -0.000049   0.000006   0.004368   0.000039
     3  C    0.000583  -0.000005   0.002379   0.000137  -0.004066   0.000056
     4  C    0.000009  -0.000000   0.000211  -0.000117  -0.000407   0.000007
     5  C   -0.000000   0.000000   0.000000  -0.000001   0.000002  -0.000000
     6  C    0.000000  -0.000000  -0.000000   0.000000   0.000004  -0.000000
     7  H   -0.000000   0.000000  -0.000000   0.000000  -0.000005   0.000000
     8  H    0.001056   0.000009  -0.000001   0.000000  -0.002343   0.000114
     9  C    0.008045  -0.000156  -0.059864   0.007321   0.001403  -0.000332
    10  C   -0.000000   0.000000   0.004883   0.000894   0.000009  -0.000000
    11  H    0.000000  -0.000000  -0.000000  -0.000000   0.000000  -0.000000
    12  H    0.000000  -0.000000   0.000000  -0.000000   0.000000  -0.000000
    13  C    0.000004  -0.000000  -0.064137  -0.006361  -0.000014  -0.000001
    14  C   -0.000097   0.000000   0.284872  -0.032325  -0.000461   0.000010
    15  H    0.000000  -0.000000  -0.000058  -0.000016   0.000000  -0.000000
    16  H   -0.000000   0.000000  -0.005315   0.008025   0.000000  -0.000000
    17  C   -0.000415   0.000004   0.000004  -0.000000  -0.000000   0.000000
    18  C    0.009347  -0.000206   0.000002  -0.000000   0.000000  -0.000001
    19  C    0.005300   0.002105  -0.000406   0.000007   0.000211  -0.000117
    20  C   -0.055098   0.001143  -0.004064   0.000056   0.002379   0.000137
    21  C   -0.001316   0.000015   0.004365   0.000039  -0.000049   0.000006
    22  C    0.000070  -0.000000  -0.000176   0.000013   0.000000  -0.000000
    23  H   -0.039922  -0.005342   0.000000  -0.000000  -0.000058  -0.000016
    24  H    0.000004  -0.000000   0.000000  -0.000000   0.000000  -0.000000
    25  H    0.000309  -0.000012   0.000000  -0.000000  -0.000000  -0.000000
    26  C    0.446322  -0.027673   0.000008  -0.000000   0.004882   0.000894
    27  C   -0.041560   0.003973   0.001401  -0.000333  -0.059867   0.007322
    28  H    0.000014   0.000000  -0.002342   0.000114  -0.000001   0.000000
    29  H   -0.000001  -0.000000  -0.000005   0.000000  -0.000000   0.000000
    30  C    0.411445  -0.041006  -0.000461   0.000010   0.284877  -0.032320
    31  C    5.183846   0.339322  -0.000014  -0.000001  -0.064136  -0.006362
    32  H    0.339322   0.606319   0.000000   0.000000  -0.005313   0.008023
    33  O   -0.000014   0.000000   8.234635   0.243542  -0.000011  -0.000001
    34  H   -0.000001   0.000000   0.243542   0.372571  -0.000001   0.000000
    35  O   -0.064136  -0.005313  -0.000011  -0.000001   8.234627   0.243538
    36  H   -0.006362   0.008023  -0.000001   0.000000   0.243538   0.372571
 Mulliken charges:
               1
     1  C   -0.137821
     2  C   -0.181689
     3  C    0.118997
     4  C    0.132456
     5  C   -0.195010
     6  C   -0.137215
     7  H    0.124295
     8  H    0.136115
     9  C   -0.036980
    10  C   -0.196504
    11  H    0.124208
    12  H    0.124375
    13  C   -0.196021
    14  C    0.303623
    15  H    0.131350
    16  H    0.118791
    17  C   -0.137213
    18  C   -0.195010
    19  C    0.132454
    20  C    0.118994
    21  C   -0.181676
    22  C   -0.137825
    23  H    0.131348
    24  H    0.124376
    25  H    0.124209
    26  C   -0.196503
    27  C   -0.036993
    28  H    0.136124
    29  H    0.124297
    30  C    0.303620
    31  C   -0.196013
    32  H    0.118791
    33  O   -0.639398
    34  H    0.406420
    35  O   -0.639392
    36  H    0.406420
 Sum of Mulliken charges =  -0.00000
 Mulliken charges with hydrogens summed into heavy atoms:
               1
     1  C   -0.013526
     2  C   -0.045574
     3  C    0.118997
     4  C    0.132456
     5  C   -0.070802
     6  C   -0.012839
     9  C   -0.036980
    10  C   -0.065154
    13  C   -0.077230
    14  C    0.303623
    17  C   -0.012836
    18  C   -0.070801
    19  C    0.132454
    20  C    0.118994
    21  C   -0.045553
    22  C   -0.013528
    26  C   -0.065155
    27  C   -0.036993
    30  C    0.303620
    31  C   -0.077223
    33  O   -0.232978
    35  O   -0.232973
 Electronic spatial extent (au):  <R**2>=           5972.2628
 Charge=             -0.0000 electrons
 Dipole moment (field-independent basis, Debye):
    X=              0.0003    Y=             -0.0004    Z=              0.9666  Tot=              0.9666
 Quadrupole moment (field-independent basis, Debye-Ang):
   XX=           -116.3601   YY=           -102.4178   ZZ=           -122.9589
   XY=              6.5020   XZ=              0.0010   YZ=              0.0016
 Traceless Quadrupole moment (field-independent basis, Debye-Ang):
   XX=             -2.4478   YY=             11.4945   ZZ=             -9.0466
   XY=              6.5020   XZ=              0.0010   YZ=              0.0016
 Octapole moment (field-independent basis, Debye-Ang**2):
  XXX=             -0.0010  YYY=             -0.0129  ZZZ=             30.5708  XYY=              0.0050
  XXY=              0.0009  XXZ=            -18.6944  XZZ=              0.0010  YZZ=              0.0100
  YYZ=             42.2539  XYZ=             24.7387
 Hexadecapole moment (field-independent basis, Debye-Ang**3):
 XXXX=          -4881.2692 YYYY=          -1598.0155 ZZZZ=          -1050.3653 XXXY=             78.2642
 XXXZ=              0.0069 YYYX=             24.0537 YYYZ=             -0.0049 ZZZX=              0.0034
 ZZZY=              0.0384 XXYY=          -1127.8855 XXZZ=          -1057.1138 YYZZ=           -358.7248
 XXYZ=             -0.0026 YYXZ=              0.0097 ZZXY=            -29.3963
 N-N= 1.673810083147D+03 E-N=-5.487801819946D+03  KE= 9.123144515204D+02
 Unable to Open any file for archive entry.
 1\1\GINC-CCC079\SP\RB3LYP TD-FC\6-31G(d)\C20H14O2\ROOT\20-Feb-2025\0\\
 # td=(nstat=16) b3lyp/6-31g(d)\\binol | No.16\\0,1\C,0,-2.867522,-1.87
 2896,1.572332\C,0,-1.757053,-1.391971,0.91584\C,0,-1.799434,-0.170754,
 0.18613\C,0,-3.036572,0.557336,0.18304\C,0,-4.167153,0.028574,0.861498
 \C,0,-4.092224,-1.164607,1.540817\H,0,-2.801754,-2.80649,2.125308\H,0,
 -0.824477,-1.942247,0.962189\C,0,-0.65774,0.354206,-0.508583\C,0,-3.09
 7459,1.808498,-0.481108\H,0,-5.09584,0.594694,0.838818\H,0,-4.962024,-
 1.55875,2.059208\C,0,-1.989908,2.323668,-1.105573\C,0,-0.770485,1.6017
 79,-1.11187\H,0,-4.033595,2.361418,-0.483698\H,0,-2.038271,3.287988,-1
 .609366\C,0,4.092246,1.16459,1.540808\C,0,4.167161,-0.028608,0.861518\
 C,0,3.036581,-0.55735,0.183048\C,0,1.799454,0.170749,0.186117\C,0,1.75
 7082,1.391984,0.915801\C,0,2.867556,1.872901,1.572291\H,0,4.033573,-2.
 361442,-0.483732\H,0,4.962047,1.558724,2.059204\H,0,5.095839,-0.594742
 ,0.838865\C,0,3.097445,-1.808504,-0.481127\C,0,0.657745,-0.354233,-0.5
 0858\H,0,0.824498,1.942256,0.962109\H,0,2.801812,2.806512,2.125241\C,0
 ,0.770454,-1.601783,-1.111907\C,0,1.989903,-2.32366,-1.105634\H,0,2.03
 8305,-3.287943,-1.609495\O,0,0.324069,2.109575,-1.759371\H,0,0.093261,
 2.974313,-2.131742\O,0,-0.324104,-2.109485,-1.759479\H,0,-0.093546,-2.
 974535,-2.131275\\Version=ES64L-G16RevC.02\State=1-A\HF=-921.0136332\R
 MSD=6.317e-09\PG=C01 [X(C20H14O2)]\\@
 The archive entry for this job was punched.


 I think that all right-thinking people in this
 country are sick and tired of being told that
 ordinary, decent people are fed up in this country
 with being sick and tired.  I'm certainly not!
 But I'm sick and tired of being told that I am!
                               -- Monty Python
 Job cpu time:       0 days  0 hours 46 minutes  5.4 seconds.
 Elapsed time:       0 days  0 hours  6 minutes  1.9 seconds.
 File lengths (MBytes):  RWF=   1295 Int=      0 D2E=      0 Chk=     78 Scr=      1
 Normal termination of Gaussian 16 at Thu Feb 20 09:33:09 2025.
