 Entering Gaussian System, Link 0=/apl/gaussian/16c02/g16/._.g16
 Initial command:
 /apl/gaussian/16c02/g16/l1.exe "/lwork/users/ux8/8279359.ccpbs1/gaussian/Gau-1403390.inp" -scrdir="/lwork/users/ux8/8279359.ccpbs1/gaussian/"
 Default CPUs for threads: 24,25,26,27,28,29,30,31
 Default is to use a total of   8 processors:
                                8 via shared-memory
                                1 via Linda
 Entering Link 1 = /apl/gaussian/16c02/g16/l1.exe PID=   1403391.
  
 Copyright (c) 1988-2021, Gaussian, Inc.  All Rights Reserved.
  
 This is part of the Gaussian(R) 16 program.  It is based on
 the Gaussian(R) 09 system (copyright 2009, Gaussian, Inc.),
 the Gaussian(R) 03 system (copyright 2003, Gaussian, Inc.),
 the Gaussian(R) 98 system (copyright 1998, Gaussian, Inc.),
 the Gaussian(R) 94 system (copyright 1995, Gaussian, Inc.),
 the Gaussian 92(TM) system (copyright 1992, Gaussian, Inc.),
 the Gaussian 90(TM) system (copyright 1990, Gaussian, Inc.),
 the Gaussian 88(TM) system (copyright 1988, Gaussian, Inc.),
 the Gaussian 86(TM) system (copyright 1986, Carnegie Mellon
 University), and the Gaussian 82(TM) system (copyright 1983,
 Carnegie Mellon University). Gaussian is a federally registered
 trademark of Gaussian, Inc.
  
 This software contains proprietary and confidential information,
 including trade secrets, belonging to Gaussian, Inc.
  
 This software is provided under written license and may be
 used, copied, transmitted, or stored only in accord with that
 written license.
  
 The following legend is applicable only to US Government
 contracts under FAR:
  
                    RESTRICTED RIGHTS LEGEND
  
 Use, reproduction and disclosure by the US Government is
 subject to restrictions as set forth in subparagraphs (a)
 and (c) of the Commercial Computer Software - Restricted
 Rights clause in FAR 52.227-19.
  
 Gaussian, Inc.
 340 Quinnipiac St., Bldg. 40, Wallingford CT 06492
  
  
 ---------------------------------------------------------------
 Warning -- This program may not be used in any manner that
 competes with the business of Gaussian, Inc. or will provide
 assistance to any competitor of Gaussian, Inc.  The licensee
 of this program is prohibited from giving any competitor of
 Gaussian, Inc. access to this program.  By using this program,
 the user acknowledges that Gaussian, Inc. is engaged in the
 business of creating and licensing software in the field of
 computational chemistry and represents and warrants to the
 licensee that it is not a competitor of Gaussian, Inc. and that
 it will not use this program in any manner prohibited above.
 ---------------------------------------------------------------
  

 Cite this work as:
 Gaussian 16, Revision C.02,
 M. J. Frisch, G. W. Trucks, H. B. Schlegel, G. E. Scuseria, 
 M. A. Robb, J. R. Cheeseman, G. Scalmani, V. Barone, 
 G. A. Petersson, H. Nakatsuji, X. Li, M. Caricato, A. V. Marenich, 
 J. Bloino, B. G. Janesko, R. Gomperts, B. Mennucci, H. P. Hratchian, 
 J. V. Ortiz, A. F. Izmaylov, J. L. Sonnenberg, D. Williams-Young, 
 F. Ding, F. Lipparini, F. Egidi, J. Goings, B. Peng, A. Petrone, 
 T. Henderson, D. Ranasinghe, V. G. Zakrzewski, J. Gao, N. Rega, 
 G. Zheng, W. Liang, M. Hada, M. Ehara, K. Toyota, R. Fukuda, 
 J. Hasegawa, M. Ishida, T. Nakajima, Y. Honda, O. Kitao, H. Nakai, 
 T. Vreven, K. Throssell, J. A. Montgomery, Jr., J. E. Peralta, 
 F. Ogliaro, M. J. Bearpark, J. J. Heyd, E. N. Brothers, K. N. Kudin, 
 V. N. Staroverov, T. A. Keith, R. Kobayashi, J. Normand, 
 K. Raghavachari, A. P. Rendell, J. C. Burant, S. S. Iyengar, 
 J. Tomasi, M. Cossi, J. M. Millam, M. Klene, C. Adamo, R. Cammi, 
 J. W. Ochterski, R. L. Martin, K. Morokuma, O. Farkas, 
 J. B. Foresman, and D. J. Fox, Gaussian, Inc., Wallingford CT, 2019.
 
 ******************************************
 Gaussian 16:  ES64L-G16RevC.02  7-Dec-2021
                20-Feb-2025 
 ******************************************
 %chk=binol.005.tddft.chk
 %mem=9600MB
 SetSPE:  set environment variable "OMP_PROC_BIND" = "true"
 SetSPE:  set environment variable "OMP_PLACES" = "{24},{25},{26},{27},{28},{29},{30},{31}"
 ------------------------------
 # td=(nstat=16) b3lyp/6-31g(d)
 ------------------------------
 1/38=1,172=1/1;
 2/12=2,17=6,18=5,40=1/2;
 3/5=1,6=6,7=1,11=9,25=1,30=1,74=-5/1,2,3,8;
 4//1;
 5/5=2,38=5/2;
 8/6=1,10=2,108=16/1;
 9/41=16,42=1,70=2/14;
 6/7=2,8=2,9=2,10=2/1;
 99/5=1,9=1/99;
 ------------
 binol | No.5
 ------------
 Symbolic Z-matrix:
 Charge =  0 Multiplicity = 1
 C                    -2.91907  -1.88266  -1.48452 
 C                    -1.79638  -1.40425  -0.84704 
 C                    -1.80994  -0.16539  -0.14579 
 C                    -3.0314    0.58939  -0.1713 
 C                    -4.17759   0.06062  -0.82329 
 C                    -4.13197  -1.15502  -1.46351 
 H                    -2.87038  -2.82951  -2.01638 
 H                    -0.87508  -1.97141  -0.89409 
 C                    -0.65537   0.35916   0.53587 
 C                    -3.06175   1.87557   0.42392 
 H                    -5.09302   0.64828  -0.81598 
 H                    -5.01262  -1.5487   -1.96356 
 C                    -1.93693   2.40094   1.00576 
 C                    -0.73518   1.65183   1.04659 
 H                    -3.98602   2.44763   0.40249 
 H                    -1.95721   3.39441   1.45143 
 C                     4.13197   1.15503  -1.46351 
 C                     4.17758  -0.06061  -0.82329 
 C                     3.0314   -0.58939  -0.17131 
 C                     1.80994   0.16539  -0.14579 
 C                     1.79638   1.40425  -0.84703 
 C                     2.91906   1.88267  -1.48451 
 H                     3.98602  -2.44763   0.40248 
 H                     5.01262   1.54871  -1.96356 
 H                     5.09302  -0.64828  -0.81598 
 C                     3.06175  -1.87557   0.42392 
 C                     0.65537  -0.35917   0.53587 
 H                     0.87508   1.97141  -0.89409 
 H                     2.87037   2.82952  -2.01637 
 C                     0.73518  -1.65183   1.04659 
 C                     1.93693  -2.40094   1.00575 
 H                     1.95721  -3.39442   1.45143 
 O                     0.36695   2.17081   1.67308 
 H                     0.15501   3.06156   1.99134 
 O                    -0.36695  -2.17082   1.67308 
 H                    -0.155    -3.06156   1.99134 
 
                          Input orientation:                          
 ---------------------------------------------------------------------
 Center     Atomic      Atomic             Coordinates (Angstroms)
 Number     Number       Type             X           Y           Z
 ---------------------------------------------------------------------
      1          6           0       -2.919065   -1.882664   -1.484515
      2          6           0       -1.796379   -1.404248   -0.847037
      3          6           0       -1.809944   -0.165388   -0.145790
      4          6           0       -3.031402    0.589387   -0.171304
      5          6           0       -4.177587    0.060617   -0.823289
      6          6           0       -4.131972   -1.155020   -1.463511
      7          1           0       -2.870378   -2.829508   -2.016379
      8          1           0       -0.875081   -1.971405   -0.894094
      9          6           0       -0.655367    0.359163    0.535872
     10          6           0       -3.061749    1.875572    0.423924
     11          1           0       -5.093018    0.648284   -0.815977
     12          1           0       -5.012621   -1.548701   -1.963562
     13          6           0       -1.936925    2.400935    1.005757
     14          6           0       -0.735180    1.651828    1.046591
     15          1           0       -3.986016    2.447626    0.402489
     16          1           0       -1.957207    3.394414    1.451432
     17          6           0        4.131968    1.155026   -1.463511
     18          6           0        4.177585   -0.060613   -0.823292
     19          6           0        3.031402   -0.589386   -0.171308
     20          6           0        1.809942    0.165387   -0.145790
     21          6           0        1.796375    1.404249   -0.847034
     22          6           0        2.919060    1.882670   -1.484511
     23          1           0        3.986019   -2.447625    0.402481
     24          1           0        5.012615    1.548710   -1.963562
     25          1           0        5.093017   -0.648278   -0.815983
     26          6           0        3.061752   -1.875572    0.423917
     27          6           0        0.655367   -0.359167    0.535871
     28          1           0        0.875076    1.971406   -0.894086
     29          1           0        2.870371    2.829515   -2.016371
     30          6           0        0.735183   -1.651833    1.046588
     31          6           0        1.936929   -2.400937    1.005751
     32          1           0        1.957213   -3.394417    1.451426
     33          8           0        0.366953    2.170813    1.673077
     34          1           0        0.155009    3.061558    1.991336
     35          8           0       -0.366948   -2.170819    1.673078
     36          1           0       -0.155000   -3.061564    1.991337
 ---------------------------------------------------------------------
                    Distance matrix (angstroms):
                    1          2          3          4          5
     1  C    0.000000
     2  C    1.376838   0.000000
     3  C    2.443639   1.423624   0.000000
     4  C    2.801460   2.440590   1.436070   0.000000
     5  C    2.407787   2.795808   2.473018   1.420712   0.000000
     6  C    1.414585   2.428405   2.847380   2.433929   1.374678
     7  H    1.087089   2.133589   3.423618   3.888325   3.388965
     8  H    2.129400   1.082900   2.166939   3.424880   3.878231
     9  C    3.772543   2.514749   1.439745   2.489707   3.787147
    10  C    4.217444   3.738144   2.461119   1.417565   2.468744
    11  H    3.402751   3.883514   3.448157   2.160864   1.087851
    12  H    2.173475   3.407596   3.933826   3.421818   2.141824
    13  C    5.051265   4.234621   2.815706   2.421788   3.720627
    14  C    4.865027   3.748542   2.424699   2.807968   4.228306
    15  H    4.842580   4.603559   3.444378   2.166467   2.690175
    16  H    6.114941   5.323155   3.904484   3.413992   4.606370
    17  C    7.677569   6.486542   6.227857   7.300933   8.405731
    18  C    7.356598   6.123248   6.026648   7.267536   8.356051
    19  C    6.229377   4.942477   4.859944   6.176334   7.267538
    20  C    5.324491   3.995129   3.634967   4.859942   6.026648
    21  C    5.783213   4.560212   3.995127   4.942473   6.123245
    22  C    6.947046   5.783214   5.324490   6.229373   7.356595
    23  H    7.180538   6.007167   6.253191   7.667912   8.627761
    24  H    8.655366   7.505264   7.265655   8.296909   9.379470
    25  H    8.134132   6.930818   6.952209   8.243398   9.297671
    26  C    6.277924   5.043700   5.194489   6.599760   7.596866
    27  C    4.379448   3.002613   2.565145   3.871965   5.037954
    28  H    5.440401   4.305105   3.512146   4.206300   5.402363
    29  H    7.483654   6.408638   5.862923   6.576729   7.665765
    30  C    4.451213   3.171107   3.179458   4.549010   5.528493
    31  C    5.481853   4.285301   4.512514   5.917078   6.840464
    32  H    5.889247   4.830441   5.212408   6.587126   7.399146
    33  O    6.099096   4.879758   3.674914   4.177495   5.598001
    34  H    6.780620   5.639832   4.340683   4.576227   5.974876
    35  O    4.070225   2.996979   3.067943   4.256736   5.072684
    36  H    4.594715   3.673852   3.961564   5.126417   5.818190
                    6          7          8          9         10
     6  C    0.000000
     7  H    2.168223   0.000000
     8  H    3.405592   2.444806   0.000000
     9  C    4.286848   4.646276   2.743105   0.000000
    10  C    3.727234   5.303723   4.617133   2.846525   0.000000
    11  H    2.143552   4.298387   4.965870   4.647992   2.677619
    12  H    1.086544   2.496490   4.294377   5.373340   4.607780
    13  C    4.853899   6.112461   4.884087   2.456016   1.371045
    14  C    5.071213   5.832943   4.112621   1.392188   2.418822
    15  H    4.059842   5.911321   5.557597   3.933534   1.087187
    16  H    5.824418   7.183091   5.955208   3.427213   2.140716
    17  C    8.580735   8.075582   5.930375   5.248762   7.472025
    18  C    8.405733   7.665769   5.402367   5.037952   7.596862
    19  C    7.300935   6.576735   4.206305   3.871965   6.599758
    20  C    6.227857   5.862925   3.512149   2.565143   5.194486
    21  C    6.486540   6.408639   4.305105   3.002611   5.043694
    22  C    7.677568   7.483655   5.440404   4.379446   6.277918
    23  H    8.429385   7.280584   5.053532   5.425709   8.268103
    24  H    9.549015   9.017381   6.942617   6.307790   8.426285
    25  H    9.261560   8.343523   6.113506   5.990523   8.625972
    26  C    7.472031   6.484998   4.152709   4.338611   7.181110
    27  C    5.248764   5.004742   2.643177   1.494664   4.338611
    28  H    5.930372   6.191667   4.313793   2.643173   4.152701
    29  H    8.075579   8.061063   6.191668   5.004739   6.484990
    30  C    5.498783   4.875321   2.541913   2.497712   5.219865
    31  C    6.669417   5.694484   3.420718   3.815617   6.604077
    32  H    7.112660   5.970798   3.943135   4.664030   7.349730
    33  O    6.414022   7.006826   5.029014   2.370749   3.661086
    34  H    6.934962   7.740763   5.892157   3.174590   3.769731
    35  O    5.004542   4.507009   2.624564   2.788769   5.019524
    36  H    5.602427   4.846536   3.167440   3.751016   5.939805
                   11         12         13         14         15
    11  H    0.000000
    12  H    2.479951   0.000000
    13  C    4.043689   5.820342   0.000000
    14  C    4.844276   6.131958   1.416693   0.000000
    15  H    2.438800   4.756337   2.136559   3.408240   0.000000
    16  H    4.745069   6.740336   1.089054   2.166530   2.472399
    17  C    9.261558   9.549016   6.669410   5.498777   8.429379
    18  C    9.297670   9.379473   6.840458   5.528488   8.627757
    19  C    8.243399   8.296913   5.917075   4.549006   7.667910
    20  C    6.952208   7.265656   4.512510   3.179454   6.253187
    21  C    6.930814   7.505263   4.285294   3.171101   6.007161
    22  C    8.134128   8.655366   5.481845   4.451206   7.180531
    23  H    9.669447   9.347820   7.678134   6.285707   9.355043
    24  H   10.210364  10.492822   7.605212   6.489130   9.347813
    25  H   10.268222  10.210368   7.876327   6.536631   9.669443
    26  C    8.625976   8.426292   6.604076   5.219863   8.268103
    27  C    5.990524   6.307792   3.815617   2.497710   5.425709
    28  H    6.113501   6.942615   3.420709   2.541905   5.053524
    29  H    8.343517   9.017379   5.694474   4.875313   7.280575
    30  C    6.536636   6.489136   4.854560   3.616095   6.285710
    31  C    7.876331   7.605220   6.169661   4.854559   7.678136
    32  H    8.437435   7.977932   6.996359   5.733887   8.399506
    33  O    6.190700   7.483298   2.409590   1.369864   4.543056
    34  H    6.422358   7.974967   2.404990   1.916329   4.477660
    35  O    6.039741   5.932492   4.879660   3.891107   6.003506
    36  H    6.784394   6.444103   5.829710   4.842026   6.895817
                   16         17         18         19         20
    16  H    0.000000
    17  C    7.112651   0.000000
    18  C    7.399139   1.374678   0.000000
    19  C    6.587121   2.433928   1.420711   0.000000
    20  C    5.212403   2.847381   2.473018   1.436070   0.000000
    21  C    4.830433   2.428405   2.795809   2.440590   1.423624
    22  C    5.889237   1.414586   2.407788   2.801461   2.443640
    23  H    8.399503   4.059843   2.690175   2.166467   3.444379
    24  H    7.977921   1.086544   2.141824   3.421817   3.933827
    25  H    8.437428   2.143551   1.087851   2.160863   3.448158
    26  C    7.349727   3.727234   2.468743   1.417564   2.461119
    27  C    4.664029   4.286848   3.787146   2.489708   1.439744
    28  H    3.943125   3.405593   3.878231   3.424880   2.166939
    29  H    5.970785   2.168224   3.388965   3.888325   3.423618
    30  C    5.733888   5.071213   4.228305   2.807968   2.424698
    31  C    6.996358   4.853898   3.720625   2.421788   2.815704
    32  H    7.836511   5.824418   4.606370   3.413993   3.904484
    33  O    2.635915   5.004532   5.072675   4.256729   3.067935
    34  H    2.205390   5.602413   5.818178   5.126408   3.961555
    35  O    5.792225   6.414022   5.598001   4.177496   3.674914
    36  H    6.724515   6.934962   5.974875   4.576227   4.340682
                   21         22         23         24         25
    21  C    0.000000
    22  C    1.376839   0.000000
    23  H    4.603560   4.842581   0.000000
    24  H    3.407595   2.173475   4.756338   0.000000
    25  H    3.883514   3.402751   2.438801   2.479951   0.000000
    26  C    3.738144   4.217445   1.087186   4.607779   2.677618
    27  C    2.514749   3.772543   3.933534   5.373339   4.647992
    28  H    1.082900   2.129400   5.557597   4.294378   4.965871
    29  H    2.133588   1.087088   5.911322   2.496489   4.298387
    30  C    3.748542   4.865027   3.408239   6.131958   4.844276
    31  C    4.234620   5.051265   2.136559   5.820342   4.043689
    32  H    5.323155   6.114943   2.472399   6.740336   4.745070
    33  O    2.996970   4.070214   6.003501   5.932481   6.039733
    34  H    3.673840   4.594700   6.895810   6.444087   6.784383
    35  O    4.879758   6.099097   4.543056   7.483298   6.190701
    36  H    5.639832   6.780620   4.477658   7.974967   6.422358
                   26         27         28         29         30
    26  C    0.000000
    27  C    2.846525   0.000000
    28  H    4.617134   2.743104   0.000000
    29  H    5.303723   4.646275   2.444806   0.000000
    30  C    2.418822   1.392188   4.112620   5.832943   0.000000
    31  C    1.371046   2.456016   4.884086   6.112460   1.416693
    32  H    2.140717   3.427213   5.955208   7.183091   2.166530
    33  O    5.019519   2.788767   2.624553   4.506996   3.891106
    34  H    5.939799   3.751013   3.167426   4.846519   4.842025
    35  O    3.661087   2.370749   5.029014   7.006826   1.369865
    36  H    3.769732   3.174591   5.892157   7.740763   1.916329
                   31         32         33         34         35
    31  C    0.000000
    32  H    1.089055   0.000000
    33  O    4.879656   5.792222   0.000000
    34  H    5.829706   6.724512   0.969348   0.000000
    35  O    2.409591   2.635915   4.403224   5.267969   0.000000
    36  H    2.404990   2.205389   5.267969   6.130965   0.969349
                   36
    36  H    0.000000
 Stoichiometry    C20H14O2
 Framework group  C1[X(C20H14O2)]
 Deg. of freedom   102
 Full point group                 C1      NOp   1
 Largest Abelian subgroup         C1      NOp   1
 Largest concise Abelian subgroup C1      NOp   1
                         Standard orientation:                         
 ---------------------------------------------------------------------
 Center     Atomic      Atomic             Coordinates (Angstroms)
 Number     Number       Type             X           Y           Z
 ---------------------------------------------------------------------
      1          6           0        2.919065    1.882664   -1.484515
      2          6           0        1.796379    1.404248   -0.847037
      3          6           0        1.809944    0.165388   -0.145790
      4          6           0        3.031402   -0.589387   -0.171304
      5          6           0        4.177587   -0.060617   -0.823289
      6          6           0        4.131972    1.155020   -1.463511
      7          1           0        2.870378    2.829508   -2.016379
      8          1           0        0.875081    1.971405   -0.894094
      9          6           0        0.655367   -0.359163    0.535872
     10          6           0        3.061749   -1.875572    0.423924
     11          1           0        5.093018   -0.648284   -0.815977
     12          1           0        5.012621    1.548701   -1.963562
     13          6           0        1.936925   -2.400935    1.005757
     14          6           0        0.735180   -1.651828    1.046591
     15          1           0        3.986016   -2.447626    0.402489
     16          1           0        1.957207   -3.394414    1.451432
     17          6           0       -4.131968   -1.155026   -1.463511
     18          6           0       -4.177585    0.060613   -0.823292
     19          6           0       -3.031402    0.589386   -0.171308
     20          6           0       -1.809942   -0.165387   -0.145790
     21          6           0       -1.796375   -1.404249   -0.847034
     22          6           0       -2.919060   -1.882670   -1.484511
     23          1           0       -3.986019    2.447625    0.402481
     24          1           0       -5.012615   -1.548710   -1.963562
     25          1           0       -5.093017    0.648278   -0.815983
     26          6           0       -3.061752    1.875572    0.423917
     27          6           0       -0.655367    0.359167    0.535871
     28          1           0       -0.875076   -1.971406   -0.894086
     29          1           0       -2.870371   -2.829515   -2.016371
     30          6           0       -0.735183    1.651833    1.046588
     31          6           0       -1.936929    2.400937    1.005751
     32          1           0       -1.957213    3.394417    1.451426
     33          8           0       -0.366953   -2.170813    1.673077
     34          1           0       -0.155009   -3.061558    1.991336
     35          8           0        0.366948    2.170819    1.673078
     36          1           0        0.155000    3.061564    1.991337
 ---------------------------------------------------------------------
 Rotational constants (GHZ):           0.4948940           0.2261231           0.1934350
 Standard basis: 6-31G(d) (6D, 7F)
 There are   358 symmetry adapted cartesian basis functions of A   symmetry.
 There are   358 symmetry adapted basis functions of A   symmetry.
   358 basis functions,   672 primitive gaussians,   358 cartesian basis functions
    75 alpha electrons       75 beta electrons
       nuclear repulsion energy      1674.7694232014 Hartrees.
 NAtoms=   36 NActive=   36 NUniq=   36 SFac= 1.00D+00 NAtFMM=   60 NAOKFM=F Big=F
 Integral buffers will be    131072 words long.
 Regular integral format.
 Two-electron integral symmetry is turned on.
 One-electron integrals computed using PRISM.
 NBasis=   358 RedAO= T EigKep=  2.40D-04  NBF=   358
 NBsUse=   358 1.00D-06 EigRej= -1.00D+00 NBFU=   358
 ExpMin= 1.61D-01 ExpMax= 5.48D+03 ExpMxC= 8.25D+02 IAcc=3 IRadAn=         5 AccDes= 0.00D+00
 Harris functional with IExCor=  402 and IRadAn=       5 diagonalized for initial guess.
 HarFok:  IExCor=  402 AccDes= 0.00D+00 IRadAn=         5 IDoV= 1 UseB2=F ITyADJ=14
 ICtDFT=  3500011 ScaDFX=  1.000000  1.000000  1.000000  1.000000
 FoFCou: FMM=F IPFlag=           0 FMFlag=      100000 FMFlg1=           0
         NFxFlg=           0 DoJE=T BraDBF=F KetDBF=T FulRan=T
         wScrn=  0.000000 ICntrl=       500 IOpCl=  0 I1Cent=   200000004 NGrid=           0
         NMat0=    1 NMatS0=      1 NMatT0=    0 NMatD0=    1 NMtDS0=    0 NMtDT0=    0
 Petite list used in FoFCou.
 Requested convergence on RMS density matrix=1.00D-08 within 128 cycles.
 Requested convergence on MAX density matrix=1.00D-06.
 Requested convergence on             energy=1.00D-06.
 No special actions if energy rises.
 Integral accuracy reduced to 1.0D-05 until final iterations.
 Initial convergence to 1.0D-05 achieved.  Increase integral accuracy.
 SCF Done:  E(RB3LYP) =  -921.010540903     A.U. after   14 cycles
            NFock= 14  Conv=0.71D-08     -V/T= 2.0095
 DoSCS=F DFT=T ScalE2(SS,OS)=  1.000000  1.000000
 ExpMin= 1.61D-01 ExpMax= 5.48D+03 ExpMxC= 8.25D+02 IAcc=3 IRadAn=         5 AccDes= 0.00D+00
 HarFok:  IExCor=  205 AccDes= 0.00D+00 IRadAn=         5 IDoV=-2 UseB2=F ITyADJ=14
 ICtDFT= 12500011 ScaDFX=  1.000000  1.000000  1.000000  1.000000
 GSVD:  LWork=        -660 too small for GESVD, short by        2750 words or        2750 for optimal perf.
 Range of M.O.s used for correlation:    23   358
 NBasis=   358 NAE=    75 NBE=    75 NFC=    22 NFV=     0
 NROrb=    336 NOA=    53 NOB=    53 NVA=   283 NVB=   283
 Orbital symmetries:
       Occupied  (A) (A) (A) (A) (A) (A) (A) (A) (A) (A) (A) (A)
                 (A) (A) (A) (A) (A) (A) (A) (A) (A) (A) (A) (A)
                 (A) (A) (A) (A) (A) (A) (A) (A) (A) (A) (A) (A)
                 (A) (A) (A) (A) (A) (A) (A) (A) (A) (A) (A) (A)
                 (A) (A) (A) (A) (A) (A) (A) (A) (A) (A) (A) (A)
                 (A) (A) (A) (A) (A) (A) (A) (A) (A) (A) (A) (A)
                 (A) (A) (A)
       Virtual   (A) (A) (A) (A) (A) (A) (A) (A) (A) (A) (A) (A)
                 (A) (A) (A) (A) (A) (A) (A) (A) (A) (A) (A) (A)
                 (A) (A) (A) (A) (A) (A) (A) (A) (A) (A) (A) (A)
                 (A) (A) (A) (A) (A) (A) (A) (A) (A) (A) (A) (A)
                 (A) (A) (A) (A) (A) (A) (A) (A) (A) (A) (A) (A)
                 (A) (A) (A) (A) (A) (A) (A) (A) (A) (A) (A) (A)
                 (A) (A) (A) (A) (A) (A) (A) (A) (A) (A) (A) (A)
                 (A) (A) (A) (A) (A) (A) (A) (A) (A) (A) (A) (A)
                 (A) (A) (A) (A) (A) (A) (A) (A) (A) (A) (A) (A)
                 (A) (A) (A) (A) (A) (A) (A) (A) (A) (A) (A) (A)
                 (A) (A) (A) (A) (A) (A) (A) (A) (A) (A) (A) (A)
                 (A) (A) (A) (A) (A) (A) (A) (A) (A) (A) (A) (A)
                 (A) (A) (A) (A) (A) (A) (A) (A) (A) (A) (A) (A)
                 (A) (A) (A) (A) (A) (A) (A) (A) (A) (A) (A) (A)
                 (A) (A) (A) (A) (A) (A) (A) (A) (A) (A) (A) (A)
                 (A) (A) (A) (A) (A) (A) (A) (A) (A) (A) (A) (A)
                 (A) (A) (A) (A) (A) (A) (A) (A) (A) (A) (A) (A)
                 (A) (A) (A) (A) (A) (A) (A) (A) (A) (A) (A) (A)
                 (A) (A) (A) (A) (A) (A) (A) (A) (A) (A) (A) (A)
                 (A) (A) (A) (A) (A) (A) (A) (A) (A) (A) (A) (A)
                 (A) (A) (A) (A) (A) (A) (A) (A) (A) (A) (A) (A)
                 (A) (A) (A) (A) (A) (A) (A) (A) (A) (A) (A) (A)
                 (A) (A) (A) (A) (A) (A) (A) (A) (A) (A) (A) (A)
                 (A) (A) (A) (A) (A) (A) (A)
    64 initial guesses have been made.
 Convergence on wavefunction:    0.001000000000000
 Iteration     1 Dimension    64 NMult     0 NNew     64
 CISAX will form    64 AO SS matrices at one time.
 New state      3 was old state      6
 New state      4 was old state      5
 New state      5 was old state      4
 New state      6 was old state      9
 New state      7 was old state      8
 New state      8 was old state      7
 New state      9 was old state     11
 New state     11 was old state     13
 New state     12 was old state     14
 New state     13 was old state     19
 New state     14 was old state     15
 New state     15 was old state     16
 New state     16 was old state     20
 Iteration     2 Dimension    96 NMult    64 NNew     32
 New state      5 was old state      6
 New state      6 was old state      5
 New state     14 was old state     15
 New state     15 was old state     14
 Iteration     3 Dimension   128 NMult    96 NNew     32
 Iteration     4 Dimension   160 NMult   128 NNew     32
 Iteration     5 Dimension   178 NMult   160 NNew     18
 Iteration     6 Dimension   184 NMult   178 NNew      6
 ***********************************************************************
 Excited states from <AA,BB:AA,BB> singles matrix:
 ***********************************************************************
 
 Ground to excited state transition densities written to RWF  633
 Ground to excited state transition electric dipole moments (Au):
       state          X           Y           Z        Dip. S.      Osc.
         1        -1.2678      0.5780     -0.0000      1.9414      0.1717
         2         0.0000     -0.0000      0.1110      0.0123      0.0012
         3        -0.0000      0.0000      0.2298      0.0528      0.0053
         4        -0.0252      0.3311     -0.0000      0.1102      0.0115
         5         0.0000     -0.0000      0.0404      0.0016      0.0002
         6        -0.6928      0.2278      0.0000      0.5319      0.0579
         7        -0.0000     -0.0000     -0.3432      0.1178      0.0138
         8         0.3299      0.6277     -0.0000      0.5028      0.0595
         9        -0.0000     -0.0000     -0.1373      0.0188      0.0023
        10         0.2146      0.1160     -0.0000      0.0595      0.0073
        11         0.0814      0.1316     -0.0000      0.0240      0.0031
        12        -1.0619     -0.0397     -0.0000      1.1292      0.1504
        13         0.0000      0.0000      0.8110      0.6577      0.0898
        14         0.0000      0.0000      0.5119      0.2620      0.0368
        15        -0.3985     -0.7650      0.0000      0.7441      0.1045
        16         0.0000      0.0000      0.4025      0.1620      0.0229
 Ground to excited state transition velocity dipole moments (Au):
       state          X           Y           Z        Dip. S.      Osc.
         1         0.1805     -0.0780      0.0000      0.0387      0.1942
         2        -0.0000      0.0000     -0.0194      0.0004      0.0018
         3        -0.0000     -0.0000     -0.0281      0.0008      0.0035
         4         0.0132     -0.0499      0.0000      0.0027      0.0113
         5        -0.0000      0.0000     -0.0043      0.0000      0.0001
         6         0.1237     -0.0405     -0.0000      0.0170      0.0692
         7        -0.0000      0.0000      0.0635      0.0040      0.0153
         8        -0.0498     -0.1114      0.0000      0.0149      0.0559
         9         0.0000      0.0000      0.0258      0.0007      0.0025
        10        -0.0381     -0.0127      0.0000      0.0016      0.0059
        11        -0.0092     -0.0162      0.0000      0.0003      0.0012
        12         0.2100      0.0105      0.0000      0.0442      0.1475
        13        -0.0000     -0.0000     -0.1619      0.0262      0.0853
        14        -0.0000     -0.0000     -0.1080      0.0117      0.0370
        15         0.0804      0.1573     -0.0000      0.0312      0.0987
        16        -0.0000     -0.0000     -0.0890      0.0079      0.0249
 Ground to excited state transition magnetic dipole moments (Au):
       state          X           Y           Z
         1         0.1389      0.0762     -0.0000
         2        -0.0000     -0.0000      0.4789
         3        -0.0000     -0.0000      0.7912
         4        -0.2062     -0.3192     -0.0000
         5         0.0000     -0.0000      0.0315
         6        -0.0704      0.0569      0.0000
         7         0.0000      0.0000     -0.8010
         8        -0.1563     -0.4532     -0.0000
         9         0.0000      0.0000     -0.3574
        10        -0.0776     -0.0307     -0.0000
        11         0.0039     -0.1784     -0.0000
        12         0.3917      0.8240     -0.0000
        13         0.0000      0.0000      1.5134
        14        -0.0000     -0.0000      0.8517
        15         0.1216      0.5172      0.0000
        16        -0.0000     -0.0000      0.4524
 Ground to excited state transition velocity quadrupole moments (Au):
       state          XX          YY          ZZ          XY          XZ          YZ
         1         0.0000     -0.0000     -0.0000     -0.0000     -0.1332     -0.2202
         2        -0.0606     -0.0819      0.0056      0.1208      0.0000      0.0000
         3        -0.7002     -0.1460      0.0082      0.5203     -0.0000     -0.0000
         4         0.0000      0.0000     -0.0000     -0.0000      0.0944     -0.0011
         5         0.6612     -0.0678     -0.0091     -0.1445      0.0000      0.0000
         6         0.0000     -0.0000     -0.0000     -0.0000     -0.1364     -0.0126
         7        -0.2844      0.1217      0.0074     -0.2644     -0.0000     -0.0000
         8        -0.0000      0.0000      0.0000     -0.0000      0.2703     -0.0331
         9        -0.1618      0.0807     -0.0022     -0.1237     -0.0000      0.0000
        10        -0.0000     -0.0000      0.0000      0.0000      0.1640     -0.0434
        11        -0.0000     -0.0000     -0.0000      0.0000      0.0609     -0.0343
        12         0.0000     -0.0000      0.0000     -0.0000     -0.2852     -0.4584
        13         1.3903     -0.2996      0.0375      0.7594     -0.0000     -0.0000
        14         1.1813     -0.1537      0.0522      0.3507      0.0000     -0.0000
        15         0.0000      0.0000      0.0000      0.0000     -0.5262      0.0161
        16         0.5298     -0.2976     -0.0823      0.5169      0.0000      0.0000
 <0|del|b> * <b|rxdel|0> + <0|del|b> * <b|delr+rdel|0>
 Rotatory Strengths (R) in cgs (10**-40 erg-esu-cm/Gauss)
       state          XX          YY          ZZ    R(velocity)    E-M Angle
         1       -43.4962    -39.0887    184.5240     33.9797       52.12
         2       -29.0841    -17.3664      0.0000    -15.4835       90.00
         3       -86.7537    -17.9177      0.0000    -34.8905       90.00
         4        46.6231     -6.1644     19.2330     19.8972       47.64
         5         1.0443     -1.6253     -0.0000     -0.1937       90.00
         6       -16.9416    -22.2442     -8.5122    -15.8993      159.18
         7      -136.0806    -68.5454     -0.0000    -68.2087       90.00
         8       160.6190     18.7827     52.8352     77.4123        5.06
         9       -24.2959    -11.8026      0.0000    -12.0328       90.00
        10         4.7755      8.9138     -0.7491      4.3134        3.16
        11         7.1583      0.5163      2.8658      3.5135       30.82
        12        20.5942    -24.7733    326.0193    107.2801       61.71
        13      -635.0227   -210.6554     -0.0000   -281.8927       90.00
        14      -218.2647    -90.9543     -0.0000   -103.0730       90.00
        15       275.4421     18.5646     11.8508    101.9525       13.83
        16      -143.8328      9.5610      0.0000    -44.7573       90.00
 1/2[<0|r|b>*<b|rxdel|0> + (<0|rxdel|b>*<b|r|0>)*]
 Rotatory Strengths (R) in cgs (10**-40 erg-esu-cm/Gauss)
       state          XX          YY          ZZ     R(length)
         1       124.5270    -31.1568     -0.0000     31.1234
         2         0.0000     -0.0000    -37.6041    -12.5347
         3        -0.0000      0.0000   -128.5705    -42.8568
         4        -3.6749     74.7236     -0.0000     23.6829
         5        -0.0000     -0.0000     -0.8986     -0.2995
         6       -34.5027     -9.1707     -0.0000    -14.5578
         7         0.0000      0.0000   -194.3843    -64.7948
         8        36.4559    201.1723     -0.0000     79.2094
         9         0.0000      0.0000    -34.6871    -11.5624
        10        11.7828      2.5194     -0.0000      4.7674
        11        -0.2252     16.6010     -0.0000      5.4586
        12       294.1635     23.1622     -0.0000    105.7752
        13        -0.0000     -0.0000   -867.9431   -289.3144
        14         0.0000      0.0000   -308.3276   -102.7759
        15        34.2608    279.8190     -0.0000    104.6932
        16         0.0000      0.0000   -128.7672    -42.9224
  1/2[<0|del|b>*<b|r|0> + (<0|r|b>*<b|del|0>)*] (Au)
       state          X           Y           Z        Dip. S.   Osc.(frdel)
         1        -0.2288     -0.0451     -0.0000      0.2739      0.1826
         2        -0.0000     -0.0000     -0.0022      0.0022      0.0014
         3         0.0000     -0.0000     -0.0065      0.0065      0.0043
         4        -0.0003     -0.0165     -0.0000      0.0169      0.0112
         5        -0.0000     -0.0000     -0.0002      0.0002      0.0001
         6        -0.0857     -0.0092     -0.0000      0.0950      0.0633
         7         0.0000     -0.0000     -0.0218      0.0218      0.0145
         8        -0.0164     -0.0699     -0.0000      0.0863      0.0575
         9        -0.0000     -0.0000     -0.0035      0.0035      0.0024
        10        -0.0082     -0.0015     -0.0000      0.0096      0.0064
        11        -0.0007     -0.0021     -0.0000      0.0029      0.0019
        12        -0.2230     -0.0004     -0.0000      0.2234      0.1489
        13        -0.0000     -0.0000     -0.1313      0.1313      0.0875
        14        -0.0000     -0.0000     -0.0553      0.0553      0.0369
        15        -0.0320     -0.1204     -0.0000      0.1524      0.1016
        16        -0.0000     -0.0000     -0.0358      0.0358      0.0239

 Excitation energies and oscillator strengths:
 
 Excited State   1:      Singlet-A      3.6107 eV  343.38 nm  f=0.1717  <S**2>=0.000
      75 -> 76         0.69472
 This state for optimization and/or second-order correction.
 Total Energy, E(TD-HF/TD-DFT) =  -920.877849989    
 Copying the excited state density for this state as the 1-particle RhoCI density.
 
 Excited State   2:      Singlet-A      3.8527 eV  321.81 nm  f=0.0012  <S**2>=0.000
      74 -> 76         0.59326
      75 -> 77        -0.37321
 
 Excited State   3:      Singlet-A      4.0933 eV  302.90 nm  f=0.0053  <S**2>=0.000
      72 -> 76         0.15163
      72 -> 78         0.10884
      74 -> 76         0.32246
      75 -> 77         0.56348
      75 -> 79         0.14137
 
 Excited State   4:      Singlet-A      4.2609 eV  290.98 nm  f=0.0115  <S**2>=0.000
      72 -> 77         0.12191
      73 -> 76         0.38809
      74 -> 77         0.40395
      74 -> 79         0.13010
      75 -> 78        -0.37190
 
 Excited State   5:      Singlet-A      4.4294 eV  279.91 nm  f=0.0002  <S**2>=0.000
      72 -> 76         0.52215
      73 -> 77         0.11743
      74 -> 76        -0.16587
      74 -> 78        -0.18243
      75 -> 77        -0.15989
      75 -> 79         0.34972
 
 Excited State   6:      Singlet-A      4.4458 eV  278.88 nm  f=0.0579  <S**2>=0.000
      73 -> 76        -0.41977
      74 -> 77         0.53369
      75 -> 78         0.14362
 
 Excited State   7:      Singlet-A      4.7844 eV  259.14 nm  f=0.0138  <S**2>=0.000
      72 -> 76        -0.36864
      73 -> 77         0.46040
      75 -> 79         0.37652
 
 Excited State   8:      Singlet-A      4.8266 eV  256.88 nm  f=0.0595  <S**2>=0.000
      72 -> 77        -0.37267
      73 -> 76         0.32328
      74 -> 77         0.14210
      74 -> 79         0.17951
      75 -> 78         0.44098
 
 Excited State   9:      Singlet-A      4.9165 eV  252.18 nm  f=0.0023  <S**2>=0.000
      73 -> 77        -0.30269
      74 -> 78         0.52868
      75 -> 79         0.34399
 
 Excited State  10:      Singlet-A      4.9750 eV  249.21 nm  f=0.0073  <S**2>=0.000
      72 -> 77         0.43412
      74 -> 79         0.49038
      75 -> 78         0.22553
 
 Excited State  11:      Singlet-A      5.1995 eV  238.45 nm  f=0.0031  <S**2>=0.000
      71 -> 76         0.59114
      72 -> 77         0.11358
      75 -> 80        -0.35530
 
 Excited State  12:      Singlet-A      5.4353 eV  228.11 nm  f=0.1504  <S**2>=0.000
      71 -> 76         0.34830
      74 -> 79         0.13588
      75 -> 80         0.57299
 
 Excited State  13:      Singlet-A      5.5737 eV  222.45 nm  f=0.0898  <S**2>=0.000
      70 -> 76         0.26682
      71 -> 77         0.35715
      72 -> 76         0.11641
      73 -> 77         0.23697
      74 -> 78         0.22037
      74 -> 80        -0.25957
      75 -> 79        -0.13438
      75 -> 81        -0.28065
 
 Excited State  14:      Singlet-A      5.7250 eV  216.57 nm  f=0.0368  <S**2>=0.000
      71 -> 77        -0.26108
      72 -> 78         0.50896
      73 -> 79         0.18211
      74 -> 78         0.16919
      74 -> 80        -0.17314
      75 -> 79        -0.11430
      75 -> 81         0.20494
 
 Excited State  15:      Singlet-A      5.7340 eV  216.23 nm  f=0.1045  <S**2>=0.000
      72 -> 77        -0.12608
      72 -> 79         0.39949
      73 -> 78         0.53136
      74 -> 79         0.13322
      75 -> 78        -0.10389
 
 Excited State  16:      Singlet-A      5.7708 eV  214.85 nm  f=0.0229  <S**2>=0.000
      73 -> 77         0.11096
      73 -> 79         0.39518
      74 -> 80         0.50401
      75 -> 81        -0.19382
 SavETr:  write IOETrn=   770 NScale= 10 NData=  16 NLR=1 NState=   16 LETran=     298.

 **********************************************************************

            Population analysis using the SCF Density.

 **********************************************************************

 Orbital symmetries:
       Occupied  (A) (A) (A) (A) (A) (A) (A) (A) (A) (A) (A) (A)
                 (A) (A) (A) (A) (A) (A) (A) (A) (A) (A) (A) (A)
                 (A) (A) (A) (A) (A) (A) (A) (A) (A) (A) (A) (A)
                 (A) (A) (A) (A) (A) (A) (A) (A) (A) (A) (A) (A)
                 (A) (A) (A) (A) (A) (A) (A) (A) (A) (A) (A) (A)
                 (A) (A) (A) (A) (A) (A) (A) (A) (A) (A) (A) (A)
                 (A) (A) (A)
       Virtual   (A) (A) (A) (A) (A) (A) (A) (A) (A) (A) (A) (A)
                 (A) (A) (A) (A) (A) (A) (A) (A) (A) (A) (A) (A)
                 (A) (A) (A) (A) (A) (A) (A) (A) (A) (A) (A) (A)
                 (A) (A) (A) (A) (A) (A) (A) (A) (A) (A) (A) (A)
                 (A) (A) (A) (A) (A) (A) (A) (A) (A) (A) (A) (A)
                 (A) (A) (A) (A) (A) (A) (A) (A) (A) (A) (A) (A)
                 (A) (A) (A) (A) (A) (A) (A) (A) (A) (A) (A) (A)
                 (A) (A) (A) (A) (A) (A) (A) (A) (A) (A) (A) (A)
                 (A) (A) (A) (A) (A) (A) (A) (A) (A) (A) (A) (A)
                 (A) (A) (A) (A) (A) (A) (A) (A) (A) (A) (A) (A)
                 (A) (A) (A) (A) (A) (A) (A) (A) (A) (A) (A) (A)
                 (A) (A) (A) (A) (A) (A) (A) (A) (A) (A) (A) (A)
                 (A) (A) (A) (A) (A) (A) (A) (A) (A) (A) (A) (A)
                 (A) (A) (A) (A) (A) (A) (A) (A) (A) (A) (A) (A)
                 (A) (A) (A) (A) (A) (A) (A) (A) (A) (A) (A) (A)
                 (A) (A) (A) (A) (A) (A) (A) (A) (A) (A) (A) (A)
                 (A) (A) (A) (A) (A) (A) (A) (A) (A) (A) (A) (A)
                 (A) (A) (A) (A) (A) (A) (A) (A) (A) (A) (A) (A)
                 (A) (A) (A) (A) (A) (A) (A) (A) (A) (A) (A) (A)
                 (A) (A) (A) (A) (A) (A) (A) (A) (A) (A) (A) (A)
                 (A) (A) (A) (A) (A) (A) (A) (A) (A) (A) (A) (A)
                 (A) (A) (A) (A) (A) (A) (A) (A) (A) (A) (A) (A)
                 (A) (A) (A) (A) (A) (A) (A) (A) (A) (A) (A) (A)
                 (A) (A) (A) (A) (A) (A) (A)
 The electronic state is 1-A.
 Alpha  occ. eigenvalues --  -19.17508 -19.17507 -10.24651 -10.24651 -10.19333
 Alpha  occ. eigenvalues --  -10.19332 -10.19163 -10.19163 -10.19097 -10.19097
 Alpha  occ. eigenvalues --  -10.19032 -10.19005 -10.18812 -10.18812 -10.18222
 Alpha  occ. eigenvalues --  -10.18222 -10.18073 -10.18073 -10.17970 -10.17970
 Alpha  occ. eigenvalues --  -10.17616 -10.17616  -1.05717  -1.05602  -0.86924
 Alpha  occ. eigenvalues --   -0.85906  -0.81373  -0.80857  -0.78651  -0.75056
 Alpha  occ. eigenvalues --   -0.72950  -0.72932  -0.71874  -0.70387  -0.62989
 Alpha  occ. eigenvalues --   -0.62539  -0.61085  -0.61021  -0.59711  -0.56700
 Alpha  occ. eigenvalues --   -0.54643  -0.54456  -0.51596  -0.50125  -0.48993
 Alpha  occ. eigenvalues --   -0.48799  -0.46368  -0.46296  -0.44259  -0.43148
 Alpha  occ. eigenvalues --   -0.42408  -0.42217  -0.41568  -0.41462  -0.41438
 Alpha  occ. eigenvalues --   -0.39746  -0.39270  -0.39180  -0.38734  -0.36641
 Alpha  occ. eigenvalues --   -0.36098  -0.35736  -0.35123  -0.34131  -0.33852
 Alpha  occ. eigenvalues --   -0.33150  -0.31327  -0.30323  -0.29897  -0.28063
 Alpha  occ. eigenvalues --   -0.25709  -0.22726  -0.22556  -0.20463  -0.19034
 Alpha virt. eigenvalues --   -0.03949  -0.02214   0.00366   0.00705   0.03220
 Alpha virt. eigenvalues --    0.04953   0.07012   0.07034   0.10079   0.10433
 Alpha virt. eigenvalues --    0.10892   0.11449   0.11957   0.12041   0.14385
 Alpha virt. eigenvalues --    0.15455   0.17533   0.17564   0.18775   0.19030
 Alpha virt. eigenvalues --    0.19985   0.20075   0.20494   0.21538   0.22886
 Alpha virt. eigenvalues --    0.24326   0.26207   0.27514   0.27743   0.29497
 Alpha virt. eigenvalues --    0.30999   0.31960   0.32378   0.32527   0.33478
 Alpha virt. eigenvalues --    0.34736   0.36531   0.36844   0.36959   0.39978
 Alpha virt. eigenvalues --    0.40895   0.48289   0.49654   0.50091   0.50385
 Alpha virt. eigenvalues --    0.51380   0.51391   0.52404   0.52556   0.53771
 Alpha virt. eigenvalues --    0.53895   0.54470   0.55283   0.55506   0.56036
 Alpha virt. eigenvalues --    0.56057   0.56641   0.57088   0.57103   0.59416
 Alpha virt. eigenvalues --    0.59726   0.60222   0.60568   0.60943   0.60944
 Alpha virt. eigenvalues --    0.61684   0.62093   0.62161   0.62918   0.62943
 Alpha virt. eigenvalues --    0.63122   0.63647   0.63823   0.64801   0.65121
 Alpha virt. eigenvalues --    0.66848   0.67163   0.67399   0.67542   0.68677
 Alpha virt. eigenvalues --    0.70765   0.71832   0.74147   0.75748   0.77365
 Alpha virt. eigenvalues --    0.79273   0.80240   0.81959   0.82203   0.83935
 Alpha virt. eigenvalues --    0.84080   0.84611   0.84776   0.85199   0.86170
 Alpha virt. eigenvalues --    0.86201   0.87291   0.88050   0.88179   0.89016
 Alpha virt. eigenvalues --    0.89326   0.90593   0.90675   0.91625   0.93197
 Alpha virt. eigenvalues --    0.94343   0.95066   0.95235   0.95596   0.98246
 Alpha virt. eigenvalues --    0.98505   1.00144   1.01845   1.02995   1.03545
 Alpha virt. eigenvalues --    1.03962   1.06194   1.06214   1.07514   1.08510
 Alpha virt. eigenvalues --    1.09902   1.10729   1.12597   1.12877   1.15926
 Alpha virt. eigenvalues --    1.16661   1.17914   1.19378   1.21933   1.22991
 Alpha virt. eigenvalues --    1.24639   1.25956   1.27207   1.27829   1.27932
 Alpha virt. eigenvalues --    1.29800   1.30731   1.32168   1.33624   1.36419
 Alpha virt. eigenvalues --    1.36537   1.40252   1.40416   1.41188   1.42040
 Alpha virt. eigenvalues --    1.42942   1.43837   1.46245   1.47315   1.47512
 Alpha virt. eigenvalues --    1.47771   1.48376   1.48856   1.50168   1.50297
 Alpha virt. eigenvalues --    1.51192   1.51394   1.51516   1.52232   1.55399
 Alpha virt. eigenvalues --    1.61084   1.64835   1.69959   1.71665   1.74670
 Alpha virt. eigenvalues --    1.75796   1.77264   1.77674   1.77802   1.79060
 Alpha virt. eigenvalues --    1.79251   1.79663   1.81056   1.83777   1.84771
 Alpha virt. eigenvalues --    1.86024   1.87327   1.89816   1.90983   1.91498
 Alpha virt. eigenvalues --    1.91955   1.92189   1.93397   1.93552   1.94999
 Alpha virt. eigenvalues --    1.95240   1.98276   1.98317   2.00536   2.00674
 Alpha virt. eigenvalues --    2.02266   2.02531   2.05395   2.05554   2.06447
 Alpha virt. eigenvalues --    2.07042   2.07274   2.08104   2.14528   2.15285
 Alpha virt. eigenvalues --    2.16530   2.17282   2.20608   2.20927   2.21822
 Alpha virt. eigenvalues --    2.22643   2.24417   2.26883   2.27685   2.28870
 Alpha virt. eigenvalues --    2.31561   2.31690   2.33565   2.34286   2.34577
 Alpha virt. eigenvalues --    2.34624   2.35011   2.35587   2.37163   2.38636
 Alpha virt. eigenvalues --    2.39863   2.40122   2.47384   2.47859   2.50535
 Alpha virt. eigenvalues --    2.51735   2.58342   2.58604   2.60547   2.61175
 Alpha virt. eigenvalues --    2.62116   2.63914   2.64601   2.65031   2.65773
 Alpha virt. eigenvalues --    2.66219   2.67912   2.67942   2.70096   2.75016
 Alpha virt. eigenvalues --    2.76070   2.76573   2.80179   2.81288   2.83489
 Alpha virt. eigenvalues --    2.85135   2.87727   2.88308   2.88486   2.90041
 Alpha virt. eigenvalues --    2.92238   2.97306   3.02760   3.05559   3.06824
 Alpha virt. eigenvalues --    3.15258   3.19190   3.36345   3.39408   3.47354
 Alpha virt. eigenvalues --    3.50299   3.95912   4.06615   4.09895   4.10089
 Alpha virt. eigenvalues --    4.10887   4.11374   4.14577   4.15628   4.16170
 Alpha virt. eigenvalues --    4.16598   4.22761   4.30093   4.30877   4.31704
 Alpha virt. eigenvalues --    4.41197   4.41921   4.43734   4.49580   4.58438
 Alpha virt. eigenvalues --    4.64221   4.81540   4.90771
          Condensed to atoms (all electrons):
               1          2          3          4          5          6
     1  C    4.905989   0.517281  -0.000099  -0.038563  -0.020631   0.493658
     2  C    0.517281   5.122336   0.448110  -0.050629  -0.069377  -0.019685
     3  C   -0.000099   0.448110   4.785604   0.446298  -0.026161  -0.039099
     4  C   -0.038563  -0.050629   0.446298   4.765121   0.450448  -0.005420
     5  C   -0.020631  -0.069377  -0.026161   0.450448   5.094539   0.519175
     6  C    0.493658  -0.019685  -0.039099  -0.005420   0.519175   4.909454
     7  H    0.356834  -0.037722   0.002835   0.001018   0.004461  -0.042926
     8  H   -0.046941   0.344402  -0.030317   0.005720   0.000507   0.004603
     9  C    0.008142  -0.089355   0.410317  -0.014366   0.014186  -0.000670
    10  C   -0.000636   0.016108  -0.018882   0.428969  -0.089770   0.008370
    11  H    0.004706   0.000496   0.004292  -0.043657   0.354147  -0.045802
    12  H   -0.041035   0.004171   0.001029   0.002772  -0.037400   0.355844
    13  C    0.000069  -0.001230  -0.055444   0.004231   0.009360  -0.000422
    14  C   -0.000302   0.013005   0.015855  -0.058341  -0.000822   0.000043
    15  H    0.000015  -0.000202   0.004347  -0.036894  -0.008246   0.000193
    16  H   -0.000000   0.000015   0.001073   0.002193  -0.000206   0.000004
    17  C    0.000000   0.000000  -0.000001   0.000000  -0.000000  -0.000000
    18  C   -0.000000   0.000001  -0.000001  -0.000000   0.000000  -0.000000
    19  C   -0.000002   0.000017   0.000021   0.000000  -0.000000   0.000000
    20  C    0.000040  -0.000157   0.000384   0.000021  -0.000001  -0.000001
    21  C   -0.000001   0.000011  -0.000157   0.000017   0.000001   0.000000
    22  C   -0.000000  -0.000001   0.000040  -0.000002  -0.000000   0.000000
    23  H   -0.000000  -0.000000   0.000000   0.000000  -0.000000   0.000000
    24  H   -0.000000  -0.000000   0.000000  -0.000000  -0.000000   0.000000
    25  H   -0.000000  -0.000000  -0.000000   0.000000  -0.000000   0.000000
    26  C    0.000000  -0.000054   0.000011   0.000000  -0.000000   0.000000
    27  C    0.001192  -0.024052  -0.056609   0.008722  -0.000069  -0.000022
    28  H    0.000002  -0.000016  -0.000098  -0.000042  -0.000003   0.000000
    29  H   -0.000000  -0.000000  -0.000000   0.000000   0.000000   0.000000
    30  C    0.000008   0.000138  -0.008804  -0.000024  -0.000018  -0.000002
    31  C   -0.000033  -0.000894   0.000820   0.000010  -0.000000   0.000000
    32  H    0.000000   0.000018  -0.000009  -0.000000   0.000000  -0.000000
    33  O    0.000000  -0.000051   0.002359   0.000220  -0.000000  -0.000000
    34  H   -0.000000   0.000006   0.000130  -0.000116  -0.000001   0.000000
    35  O   -0.000389   0.003566  -0.004864  -0.000447   0.000001   0.000007
    36  H    0.000028   0.000147   0.000055   0.000007  -0.000000  -0.000001
               7          8          9         10         11         12
     1  C    0.356834  -0.046941   0.008142  -0.000636   0.004706  -0.041035
     2  C   -0.037722   0.344402  -0.089355   0.016108   0.000496   0.004171
     3  C    0.002835  -0.030317   0.410317  -0.018882   0.004292   0.001029
     4  C    0.001018   0.005720  -0.014366   0.428969  -0.043657   0.002772
     5  C    0.004461   0.000507   0.014186  -0.089770   0.354147  -0.037400
     6  C   -0.042926   0.004603  -0.000670   0.008370  -0.045802   0.355844
     7  H    0.602679  -0.005711  -0.000186   0.000009  -0.000199  -0.004831
     8  H   -0.005711   0.593243  -0.015891  -0.000191   0.000019  -0.000187
     9  C   -0.000186  -0.015891   5.284421  -0.065889  -0.000163   0.000014
    10  C    0.000009  -0.000191  -0.065889   5.141935  -0.008870  -0.000199
    11  H   -0.000199   0.000019  -0.000163  -0.008870   0.609230  -0.005447
    12  H   -0.004831  -0.000187   0.000014  -0.000199  -0.005447   0.600872
    13  C   -0.000001   0.000016  -0.037781   0.445494   0.000326   0.000004
    14  C    0.000003  -0.000047   0.431102   0.013278   0.000008  -0.000000
    15  H   -0.000000   0.000002   0.000744   0.349181   0.006788  -0.000013
    16  H   -0.000000   0.000000   0.003911  -0.027510  -0.000012  -0.000000
    17  C    0.000000   0.000000  -0.000022   0.000000   0.000000   0.000000
    18  C    0.000000  -0.000003  -0.000069  -0.000000  -0.000000  -0.000000
    19  C    0.000000  -0.000042   0.008722   0.000000   0.000000  -0.000000
    20  C   -0.000000  -0.000098  -0.056610   0.000011  -0.000000   0.000000
    21  C   -0.000000  -0.000016  -0.024052  -0.000054  -0.000000  -0.000000
    22  C   -0.000000   0.000002   0.001192   0.000000  -0.000000  -0.000000
    23  H   -0.000000  -0.000001   0.000011  -0.000000   0.000000   0.000000
    24  H   -0.000000  -0.000000   0.000000   0.000000  -0.000000   0.000000
    25  H    0.000000   0.000000   0.000001  -0.000000   0.000000  -0.000000
    26  C   -0.000000   0.000003  -0.000934   0.000000  -0.000000   0.000000
    27  C   -0.000004   0.008855   0.268359  -0.000934   0.000001   0.000000
    28  H   -0.000000  -0.000006   0.008855   0.000003   0.000000  -0.000000
    29  H    0.000000  -0.000000  -0.000004  -0.000000   0.000000  -0.000000
    30  C    0.000006   0.007949  -0.062638   0.000046   0.000000   0.000000
    31  C   -0.000000   0.001497   0.007805  -0.000000   0.000000   0.000000
    32  H    0.000000   0.000012  -0.000141   0.000000  -0.000000  -0.000000
    33  O   -0.000000  -0.000001  -0.060004   0.004975  -0.000000   0.000000
    34  H    0.000000   0.000000   0.007060   0.000919  -0.000000  -0.000000
    35  O   -0.000009  -0.003070   0.002217   0.000011   0.000000   0.000000
    36  H    0.000000   0.000204  -0.000358  -0.000000  -0.000000  -0.000000
              13         14         15         16         17         18
     1  C    0.000069  -0.000302   0.000015  -0.000000   0.000000  -0.000000
     2  C   -0.001230   0.013005  -0.000202   0.000015   0.000000   0.000001
     3  C   -0.055444   0.015855   0.004347   0.001073  -0.000001  -0.000001
     4  C    0.004231  -0.058341  -0.036894   0.002193   0.000000  -0.000000
     5  C    0.009360  -0.000822  -0.008246  -0.000206  -0.000000   0.000000
     6  C   -0.000422   0.000043   0.000193   0.000004  -0.000000  -0.000000
     7  H   -0.000001   0.000003  -0.000000  -0.000000   0.000000   0.000000
     8  H    0.000016  -0.000047   0.000002   0.000000   0.000000  -0.000003
     9  C   -0.037781   0.431102   0.000744   0.003911  -0.000022  -0.000069
    10  C    0.445494   0.013278   0.349181  -0.027510   0.000000  -0.000000
    11  H    0.000326   0.000008   0.006788  -0.000012   0.000000  -0.000000
    12  H    0.000004  -0.000000  -0.000013  -0.000000   0.000000  -0.000000
    13  C    5.182745   0.411070  -0.039877   0.339854   0.000000  -0.000000
    14  C    0.411070   4.736125   0.002990  -0.041401  -0.000002  -0.000018
    15  H   -0.039877   0.002990   0.594697  -0.005330   0.000000  -0.000000
    16  H    0.339854  -0.041401  -0.005330   0.605895  -0.000000   0.000000
    17  C    0.000000  -0.000002   0.000000  -0.000000   4.909455   0.519175
    18  C   -0.000000  -0.000018  -0.000000   0.000000   0.519175   5.094539
    19  C    0.000010  -0.000024   0.000000  -0.000000  -0.005420   0.450448
    20  C    0.000820  -0.008804   0.000000  -0.000009  -0.039099  -0.026162
    21  C   -0.000894   0.000138  -0.000000   0.000018  -0.019685  -0.069377
    22  C   -0.000033   0.000008  -0.000000   0.000000   0.493657  -0.020631
    23  H    0.000000  -0.000000  -0.000000  -0.000000   0.000193  -0.008246
    24  H    0.000000   0.000000   0.000000  -0.000000   0.355844  -0.037400
    25  H    0.000000   0.000000   0.000000  -0.000000  -0.045802   0.354147
    26  C   -0.000000   0.000046  -0.000000   0.000000   0.008370  -0.089770
    27  C    0.007805  -0.062637   0.000011  -0.000141  -0.000671   0.014186
    28  H    0.001497   0.007949  -0.000001   0.000012   0.004603   0.000507
    29  H   -0.000000   0.000006  -0.000000   0.000000  -0.042926   0.004461
    30  C   -0.000213   0.003782  -0.000000   0.000001   0.000043  -0.000822
    31  C    0.000003  -0.000213   0.000000  -0.000000  -0.000422   0.009360
    32  H   -0.000000   0.000001  -0.000000   0.000000   0.000004  -0.000206
    33  O   -0.063764   0.277820  -0.000059  -0.005438   0.000007   0.000001
    34  H   -0.006148  -0.032227  -0.000016   0.008205  -0.000001  -0.000000
    35  O   -0.000017  -0.000353   0.000000   0.000000  -0.000000  -0.000000
    36  H   -0.000000   0.000018  -0.000000   0.000000   0.000000  -0.000001
              19         20         21         22         23         24
     1  C   -0.000002   0.000040  -0.000001  -0.000000  -0.000000  -0.000000
     2  C    0.000017  -0.000157   0.000011  -0.000001  -0.000000  -0.000000
     3  C    0.000021   0.000384  -0.000157   0.000040   0.000000   0.000000
     4  C    0.000000   0.000021   0.000017  -0.000002   0.000000  -0.000000
     5  C   -0.000000  -0.000001   0.000001  -0.000000  -0.000000  -0.000000
     6  C    0.000000  -0.000001   0.000000   0.000000   0.000000   0.000000
     7  H    0.000000  -0.000000  -0.000000  -0.000000  -0.000000  -0.000000
     8  H   -0.000042  -0.000098  -0.000016   0.000002  -0.000001  -0.000000
     9  C    0.008722  -0.056610  -0.024052   0.001192   0.000011   0.000000
    10  C    0.000000   0.000011  -0.000054   0.000000  -0.000000   0.000000
    11  H    0.000000  -0.000000  -0.000000  -0.000000   0.000000  -0.000000
    12  H   -0.000000   0.000000  -0.000000  -0.000000   0.000000   0.000000
    13  C    0.000010   0.000820  -0.000894  -0.000033   0.000000   0.000000
    14  C   -0.000024  -0.008804   0.000138   0.000008  -0.000000   0.000000
    15  H    0.000000   0.000000  -0.000000  -0.000000  -0.000000   0.000000
    16  H   -0.000000  -0.000009   0.000018   0.000000  -0.000000  -0.000000
    17  C   -0.005420  -0.039099  -0.019685   0.493657   0.000193   0.355844
    18  C    0.450448  -0.026162  -0.069377  -0.020631  -0.008246  -0.037400
    19  C    4.765121   0.446298  -0.050629  -0.038563  -0.036894   0.002772
    20  C    0.446298   4.785604   0.448110  -0.000100   0.004347   0.001029
    21  C   -0.050629   0.448110   5.122336   0.517281  -0.000202   0.004171
    22  C   -0.038563  -0.000100   0.517281   4.905989   0.000015  -0.041035
    23  H   -0.036894   0.004347  -0.000202   0.000015   0.594697  -0.000013
    24  H    0.002772   0.001029   0.004171  -0.041035  -0.000013   0.600872
    25  H   -0.043657   0.004292   0.000496   0.004706   0.006788  -0.005447
    26  C    0.428969  -0.018882   0.016108  -0.000636   0.349181  -0.000199
    27  C   -0.014366   0.410318  -0.089355   0.008142   0.000744   0.000014
    28  H    0.005720  -0.030317   0.344402  -0.046941   0.000002  -0.000187
    29  H    0.001018   0.002835  -0.037722   0.356834  -0.000000  -0.004831
    30  C   -0.058341   0.015855   0.013005  -0.000302   0.002990  -0.000000
    31  C    0.004231  -0.055444  -0.001230   0.000069  -0.039877   0.000004
    32  H    0.002193   0.001073   0.000015  -0.000000  -0.005330  -0.000000
    33  O   -0.000447  -0.004864   0.003566  -0.000389   0.000000   0.000000
    34  H    0.000007   0.000055   0.000147   0.000028  -0.000000  -0.000000
    35  O    0.000220   0.002359  -0.000051   0.000000  -0.000059   0.000000
    36  H   -0.000116   0.000130   0.000006  -0.000000  -0.000016  -0.000000
              25         26         27         28         29         30
     1  C   -0.000000   0.000000   0.001192   0.000002  -0.000000   0.000008
     2  C   -0.000000  -0.000054  -0.024052  -0.000016  -0.000000   0.000138
     3  C   -0.000000   0.000011  -0.056609  -0.000098  -0.000000  -0.008804
     4  C    0.000000   0.000000   0.008722  -0.000042   0.000000  -0.000024
     5  C   -0.000000  -0.000000  -0.000069  -0.000003   0.000000  -0.000018
     6  C    0.000000   0.000000  -0.000022   0.000000   0.000000  -0.000002
     7  H    0.000000  -0.000000  -0.000004  -0.000000   0.000000   0.000006
     8  H    0.000000   0.000003   0.008855  -0.000006  -0.000000   0.007949
     9  C    0.000001  -0.000934   0.268359   0.008855  -0.000004  -0.062638
    10  C   -0.000000   0.000000  -0.000934   0.000003  -0.000000   0.000046
    11  H    0.000000  -0.000000   0.000001   0.000000   0.000000   0.000000
    12  H   -0.000000   0.000000   0.000000  -0.000000  -0.000000   0.000000
    13  C    0.000000  -0.000000   0.007805   0.001497  -0.000000  -0.000213
    14  C    0.000000   0.000046  -0.062637   0.007949   0.000006   0.003782
    15  H    0.000000  -0.000000   0.000011  -0.000001  -0.000000  -0.000000
    16  H   -0.000000   0.000000  -0.000141   0.000012   0.000000   0.000001
    17  C   -0.045802   0.008370  -0.000671   0.004603  -0.042926   0.000043
    18  C    0.354147  -0.089770   0.014186   0.000507   0.004461  -0.000822
    19  C   -0.043657   0.428969  -0.014366   0.005720   0.001018  -0.058341
    20  C    0.004292  -0.018882   0.410318  -0.030317   0.002835   0.015855
    21  C    0.000496   0.016108  -0.089355   0.344402  -0.037722   0.013005
    22  C    0.004706  -0.000636   0.008142  -0.046941   0.356834  -0.000302
    23  H    0.006788   0.349181   0.000744   0.000002  -0.000000   0.002990
    24  H   -0.005447  -0.000199   0.000014  -0.000187  -0.004831  -0.000000
    25  H    0.609230  -0.008870  -0.000163   0.000019  -0.000199   0.000008
    26  C   -0.008870   5.141936  -0.065889  -0.000191   0.000009   0.013278
    27  C   -0.000163  -0.065889   5.284421  -0.015891  -0.000186   0.431101
    28  H    0.000019  -0.000191  -0.015891   0.593243  -0.005711  -0.000047
    29  H   -0.000199   0.000009  -0.000186  -0.005711   0.602679   0.000003
    30  C    0.000008   0.013278   0.431101  -0.000047   0.000003   4.736125
    31  C    0.000326   0.445493  -0.037780   0.000016  -0.000001   0.411070
    32  H   -0.000012  -0.027510   0.003911   0.000000  -0.000000  -0.041401
    33  O    0.000000   0.000011   0.002217  -0.003070  -0.000009  -0.000353
    34  H   -0.000000  -0.000000  -0.000358   0.000204   0.000000   0.000018
    35  O   -0.000000   0.004975  -0.060004  -0.000001  -0.000000   0.277820
    36  H   -0.000000   0.000919   0.007060   0.000000   0.000000  -0.032227
              31         32         33         34         35         36
     1  C   -0.000033   0.000000   0.000000  -0.000000  -0.000389   0.000028
     2  C   -0.000894   0.000018  -0.000051   0.000006   0.003566   0.000147
     3  C    0.000820  -0.000009   0.002359   0.000130  -0.004864   0.000055
     4  C    0.000010  -0.000000   0.000220  -0.000116  -0.000447   0.000007
     5  C   -0.000000   0.000000  -0.000000  -0.000001   0.000001  -0.000000
     6  C    0.000000  -0.000000  -0.000000   0.000000   0.000007  -0.000001
     7  H   -0.000000   0.000000  -0.000000   0.000000  -0.000009   0.000000
     8  H    0.001497   0.000012  -0.000001   0.000000  -0.003070   0.000204
     9  C    0.007805  -0.000141  -0.060004   0.007060   0.002217  -0.000358
    10  C   -0.000000   0.000000   0.004975   0.000919   0.000011  -0.000000
    11  H    0.000000  -0.000000  -0.000000  -0.000000   0.000000  -0.000000
    12  H    0.000000  -0.000000   0.000000  -0.000000   0.000000  -0.000000
    13  C    0.000003  -0.000000  -0.063764  -0.006148  -0.000017  -0.000000
    14  C   -0.000213   0.000001   0.277820  -0.032227  -0.000353   0.000018
    15  H    0.000000  -0.000000  -0.000059  -0.000016   0.000000  -0.000000
    16  H   -0.000000   0.000000  -0.005438   0.008205   0.000000   0.000000
    17  C   -0.000422   0.000004   0.000007  -0.000001  -0.000000   0.000000
    18  C    0.009360  -0.000206   0.000001  -0.000000  -0.000000  -0.000001
    19  C    0.004231   0.002193  -0.000447   0.000007   0.000220  -0.000116
    20  C   -0.055444   0.001073  -0.004864   0.000055   0.002359   0.000130
    21  C   -0.001230   0.000015   0.003566   0.000147  -0.000051   0.000006
    22  C    0.000069  -0.000000  -0.000389   0.000028   0.000000  -0.000000
    23  H   -0.039877  -0.005330   0.000000  -0.000000  -0.000059  -0.000016
    24  H    0.000004  -0.000000   0.000000  -0.000000   0.000000  -0.000000
    25  H    0.000326  -0.000012   0.000000  -0.000000  -0.000000  -0.000000
    26  C    0.445493  -0.027510   0.000011  -0.000000   0.004975   0.000919
    27  C   -0.037780   0.003911   0.002217  -0.000358  -0.060004   0.007060
    28  H    0.000016   0.000000  -0.003070   0.000204  -0.000001   0.000000
    29  H   -0.000001  -0.000000  -0.000009   0.000000  -0.000000   0.000000
    30  C    0.411070  -0.041401  -0.000353   0.000018   0.277820  -0.032227
    31  C    5.182745   0.339854  -0.000017  -0.000000  -0.063764  -0.006148
    32  H    0.339854   0.605895   0.000000   0.000000  -0.005438   0.008205
    33  O   -0.000017   0.000000   8.241461   0.243261  -0.000002  -0.000000
    34  H   -0.000000   0.000000   0.243261   0.372421  -0.000000   0.000000
    35  O   -0.063764  -0.005438  -0.000002  -0.000000   8.241461   0.243260
    36  H   -0.006148   0.008205  -0.000000   0.000000   0.243260   0.372421
 Mulliken charges:
               1
     1  C   -0.139330
     2  C   -0.176401
     3  C    0.116967
     4  C    0.132731
     5  C   -0.194118
     6  C   -0.137301
     7  H    0.123745
     8  H    0.135487
     9  C   -0.027929
    10  C   -0.196372
    11  H    0.124135
    12  H    0.124407
    13  C   -0.197478
    14  C    0.291946
    15  H    0.131668
    16  H    0.118865
    17  C   -0.137301
    18  C   -0.194118
    19  C    0.132731
    20  C    0.116968
    21  C   -0.176401
    22  C   -0.139330
    23  H    0.131668
    24  H    0.124407
    25  H    0.124135
    26  C   -0.196372
    27  C   -0.027929
    28  H    0.135487
    29  H    0.123745
    30  C    0.291946
    31  C   -0.197478
    32  H    0.118865
    33  O   -0.637430
    34  H    0.406408
    35  O   -0.637430
    36  H    0.406407
 Sum of Mulliken charges =  -0.00000
 Mulliken charges with hydrogens summed into heavy atoms:
               1
     1  C   -0.015586
     2  C   -0.040914
     3  C    0.116967
     4  C    0.132731
     5  C   -0.069983
     6  C   -0.012894
     9  C   -0.027929
    10  C   -0.064704
    13  C   -0.078613
    14  C    0.291946
    17  C   -0.012895
    18  C   -0.069983
    19  C    0.132731
    20  C    0.116968
    21  C   -0.040914
    22  C   -0.015585
    26  C   -0.064704
    27  C   -0.027929
    30  C    0.291946
    31  C   -0.078613
    33  O   -0.231022
    35  O   -0.231022
 Electronic spatial extent (au):  <R**2>=           5979.4744
 Charge=             -0.0000 electrons
 Dipole moment (field-independent basis, Debye):
    X=             -0.0000    Y=             -0.0000    Z=              0.7159  Tot=              0.7159
 Quadrupole moment (field-independent basis, Debye-Ang):
   XX=           -116.5899   YY=           -100.8122   ZZ=           -124.5798
   XY=             -6.1893   XZ=             -0.0000   YZ=             -0.0000
 Traceless Quadrupole moment (field-independent basis, Debye-Ang):
   XX=             -2.5959   YY=             13.1818   ZZ=            -10.5859
   XY=             -6.1893   XZ=             -0.0000   YZ=             -0.0000
 Octapole moment (field-independent basis, Debye-Ang**2):
  XXX=              0.0000  YYY=              0.0000  ZZZ=             26.1633  XYY=             -0.0002
  XXY=              0.0000  XXZ=            -20.2600  XZZ=             -0.0000  YZZ=              0.0000
  YYZ=             40.6517  XYZ=            -22.4757
 Hexadecapole moment (field-independent basis, Debye-Ang**3):
 XXXX=          -4910.7872 YYYY=          -1643.5234 ZZZZ=           -959.2094 XXXY=            -74.9386
 XXXZ=             -0.0001 YYYX=            -21.1605 YYYZ=              0.0004 ZZZX=             -0.0003
 ZZZY=             -0.0000 XXYY=          -1140.5270 XXZZ=          -1050.4320 YYZZ=           -372.5163
 XXYZ=             -0.0001 YYXZ=             -0.0002 ZZXY=             31.5754
 N-N= 1.674769423201D+03 E-N=-5.489690753919D+03  KE= 9.123096832950D+02
 Unable to Open any file for archive entry.
 1\1\GINC-CCC131\SP\RB3LYP TD-FC\6-31G(d)\C20H14O2\ROOT\20-Feb-2025\0\\
 # td=(nstat=16) b3lyp/6-31g(d)\\binol | No.5\\0,1\C,0,-2.919065,-1.882
 664,-1.484515\C,0,-1.796379,-1.404248,-0.847037\C,0,-1.809944,-0.16538
 8,-0.14579\C,0,-3.031402,0.589387,-0.171304\C,0,-4.177587,0.060617,-0.
 823289\C,0,-4.131972,-1.15502,-1.463511\H,0,-2.870378,-2.829508,-2.016
 379\H,0,-0.875081,-1.971405,-0.894094\C,0,-0.655367,0.359163,0.535872\
 C,0,-3.061749,1.875572,0.423924\H,0,-5.093018,0.648284,-0.815977\H,0,-
 5.012621,-1.548701,-1.963562\C,0,-1.936925,2.400935,1.005757\C,0,-0.73
 518,1.651828,1.046591\H,0,-3.986016,2.447626,0.402489\H,0,-1.957207,3.
 394414,1.451432\C,0,4.131968,1.155026,-1.463511\C,0,4.177585,-0.060613
 ,-0.823292\C,0,3.031402,-0.589386,-0.171308\C,0,1.809942,0.165387,-0.1
 4579\C,0,1.796375,1.404249,-0.847034\C,0,2.91906,1.88267,-1.484511\H,0
 ,3.986019,-2.447625,0.402481\H,0,5.012615,1.54871,-1.963562\H,0,5.0930
 17,-0.648278,-0.815983\C,0,3.061752,-1.875572,0.423917\C,0,0.655367,-0
 .359167,0.535871\H,0,0.875076,1.971406,-0.894086\H,0,2.870371,2.829515
 ,-2.016371\C,0,0.735183,-1.651833,1.046588\C,0,1.936929,-2.400937,1.00
 5751\H,0,1.957213,-3.394417,1.451426\O,0,0.366953,2.170813,1.673077\H,
 0,0.155009,3.061558,1.991336\O,0,-0.366948,-2.170819,1.673078\H,0,-0.1
 55,-3.061564,1.991337\\Version=ES64L-G16RevC.02\State=1-A\HF=-921.0105
 409\RMSD=7.128e-09\PG=C01 [X(C20H14O2)]\\@
 The archive entry for this job was punched.


 GOD DOES NOT PLAY WITH DICE.
               -- A. EINSTEIN
 Job cpu time:       0 days  0 hours 41 minutes 45.2 seconds.
 Elapsed time:       0 days  0 hours  5 minutes 24.4 seconds.
 File lengths (MBytes):  RWF=   1295 Int=      0 D2E=      0 Chk=     78 Scr=      1
 Normal termination of Gaussian 16 at Thu Feb 20 09:32:20 2025.
