 Entering Gaussian System, Link 0=/apl/gaussian/16c02/g16/._.g16
 Initial command:
 /apl/gaussian/16c02/g16/l1.exe "/lwork/users/ux8/8279366.ccpbs1/gaussian/Gau-3949712.inp" -scrdir="/lwork/users/ux8/8279366.ccpbs1/gaussian/"
 Default CPUs for threads: 96,97,98,99,100,101,102,103
 Default is to use a total of   8 processors:
                                8 via shared-memory
                                1 via Linda
 Entering Link 1 = /apl/gaussian/16c02/g16/l1.exe PID=   3949743.
  
 Copyright (c) 1988-2021, Gaussian, Inc.  All Rights Reserved.
  
 This is part of the Gaussian(R) 16 program.  It is based on
 the Gaussian(R) 09 system (copyright 2009, Gaussian, Inc.),
 the Gaussian(R) 03 system (copyright 2003, Gaussian, Inc.),
 the Gaussian(R) 98 system (copyright 1998, Gaussian, Inc.),
 the Gaussian(R) 94 system (copyright 1995, Gaussian, Inc.),
 the Gaussian 92(TM) system (copyright 1992, Gaussian, Inc.),
 the Gaussian 90(TM) system (copyright 1990, Gaussian, Inc.),
 the Gaussian 88(TM) system (copyright 1988, Gaussian, Inc.),
 the Gaussian 86(TM) system (copyright 1986, Carnegie Mellon
 University), and the Gaussian 82(TM) system (copyright 1983,
 Carnegie Mellon University). Gaussian is a federally registered
 trademark of Gaussian, Inc.
  
 This software contains proprietary and confidential information,
 including trade secrets, belonging to Gaussian, Inc.
  
 This software is provided under written license and may be
 used, copied, transmitted, or stored only in accord with that
 written license.
  
 The following legend is applicable only to US Government
 contracts under FAR:
  
                    RESTRICTED RIGHTS LEGEND
  
 Use, reproduction and disclosure by the US Government is
 subject to restrictions as set forth in subparagraphs (a)
 and (c) of the Commercial Computer Software - Restricted
 Rights clause in FAR 52.227-19.
  
 Gaussian, Inc.
 340 Quinnipiac St., Bldg. 40, Wallingford CT 06492
  
  
 ---------------------------------------------------------------
 Warning -- This program may not be used in any manner that
 competes with the business of Gaussian, Inc. or will provide
 assistance to any competitor of Gaussian, Inc.  The licensee
 of this program is prohibited from giving any competitor of
 Gaussian, Inc. access to this program.  By using this program,
 the user acknowledges that Gaussian, Inc. is engaged in the
 business of creating and licensing software in the field of
 computational chemistry and represents and warrants to the
 licensee that it is not a competitor of Gaussian, Inc. and that
 it will not use this program in any manner prohibited above.
 ---------------------------------------------------------------
  

 Cite this work as:
 Gaussian 16, Revision C.02,
 M. J. Frisch, G. W. Trucks, H. B. Schlegel, G. E. Scuseria, 
 M. A. Robb, J. R. Cheeseman, G. Scalmani, V. Barone, 
 G. A. Petersson, H. Nakatsuji, X. Li, M. Caricato, A. V. Marenich, 
 J. Bloino, B. G. Janesko, R. Gomperts, B. Mennucci, H. P. Hratchian, 
 J. V. Ortiz, A. F. Izmaylov, J. L. Sonnenberg, D. Williams-Young, 
 F. Ding, F. Lipparini, F. Egidi, J. Goings, B. Peng, A. Petrone, 
 T. Henderson, D. Ranasinghe, V. G. Zakrzewski, J. Gao, N. Rega, 
 G. Zheng, W. Liang, M. Hada, M. Ehara, K. Toyota, R. Fukuda, 
 J. Hasegawa, M. Ishida, T. Nakajima, Y. Honda, O. Kitao, H. Nakai, 
 T. Vreven, K. Throssell, J. A. Montgomery, Jr., J. E. Peralta, 
 F. Ogliaro, M. J. Bearpark, J. J. Heyd, E. N. Brothers, K. N. Kudin, 
 V. N. Staroverov, T. A. Keith, R. Kobayashi, J. Normand, 
 K. Raghavachari, A. P. Rendell, J. C. Burant, S. S. Iyengar, 
 J. Tomasi, M. Cossi, J. M. Millam, M. Klene, C. Adamo, R. Cammi, 
 J. W. Ochterski, R. L. Martin, K. Morokuma, O. Farkas, 
 J. B. Foresman, and D. J. Fox, Gaussian, Inc., Wallingford CT, 2019.
 
 ******************************************
 Gaussian 16:  ES64L-G16RevC.02  7-Dec-2021
                20-Feb-2025 
 ******************************************
 %chk=binol.012.tddft.chk
 %mem=9600MB
 SetSPE:  set environment variable "OMP_PROC_BIND" = "true"
 SetSPE:  set environment variable "OMP_PLACES" = "{96},{97},{98},{99},{100},{101},{102},{103}"
 ------------------------------
 # td=(nstat=16) b3lyp/6-31g(d)
 ------------------------------
 1/38=1,172=1/1;
 2/12=2,17=6,18=5,40=1/2;
 3/5=1,6=6,7=1,11=9,25=1,30=1,74=-5/1,2,3,8;
 4//1;
 5/5=2,38=5/2;
 8/6=1,10=2,108=16/1;
 9/41=16,42=1,70=2/14;
 6/7=2,8=2,9=2,10=2/1;
 99/5=1,9=1/99;
 -------------
 binol | No.12
 -------------
 Symbolic Z-matrix:
 Charge =  0 Multiplicity = 1
 C                    -3.27775  -1.74549  -1.10285 
 C                    -2.04752  -1.24427  -0.71988 
 C                    -1.9044   -0.0774    0.07779 
 C                    -3.11079   0.69529   0.18429 
 C                    -4.37619   0.1348   -0.12819 
 C                    -4.47138  -1.09923  -0.72999 
 H                    -3.31581  -2.63611  -1.72513 
 H                    -1.16744  -1.73022  -1.10851 
 C                    -0.60511   0.45491   0.60645 
 C                    -3.00229   2.09928   0.35665 
 H                    -5.26267   0.74203   0.04099 
 H                    -5.43781  -1.52019  -0.99311 
 C                    -1.76092   2.65432   0.33637 
 C                    -0.58206   1.84972   0.40694 
 H                    -3.89692   2.7148    0.40071 
 H                    -1.63669   3.73589   0.35941 
 C                     4.47253   1.09771  -0.72954 
 C                     4.37652  -0.13654  -0.12834 
 C                     3.11075  -0.69618   0.18423 
 C                     1.90494   0.07754   0.07825 
 C                     2.04879   1.24466  -0.71895 
 C                     3.27932   1.74511  -1.10186 
 H                     3.89537  -2.71631   0.39996 
 H                     5.43924   1.51808  -0.99259 
 H                     5.26257  -0.74452   0.04042 
 C                     3.0012   -2.10007   0.35643 
 C                     0.60551  -0.4538    0.60681 
 H                     1.16899   1.73156  -1.107 
 H                     3.31798   2.63605  -1.72364 
 C                     0.58126  -1.84867   0.40791 
 C                     1.75939  -2.6542    0.33683 
 H                     1.63436  -3.73567   0.36008 
 O                     0.53771   2.55789   0.80086 
 H                     0.30726   3.49653   0.87121 
 O                    -0.53886  -2.55564   0.80291 
 H                    -0.30993  -3.49482   0.87095 
 
                          Input orientation:                          
 ---------------------------------------------------------------------
 Center     Atomic      Atomic             Coordinates (Angstroms)
 Number     Number       Type             X           Y           Z
 ---------------------------------------------------------------------
      1          6           0       -3.277754   -1.745491   -1.102845
      2          6           0       -2.047525   -1.244274   -0.719875
      3          6           0       -1.904397   -0.077404    0.077787
      4          6           0       -3.110788    0.695286    0.184288
      5          6           0       -4.376187    0.134799   -0.128193
      6          6           0       -4.471377   -1.099232   -0.729988
      7          1           0       -3.315814   -2.636109   -1.725131
      8          1           0       -1.167441   -1.730216   -1.108514
      9          6           0       -0.605111    0.454911    0.606447
     10          6           0       -3.002287    2.099276    0.356649
     11          1           0       -5.262668    0.742033    0.040990
     12          1           0       -5.437808   -1.520189   -0.993114
     13          6           0       -1.760922    2.654323    0.336367
     14          6           0       -0.582062    1.849722    0.406943
     15          1           0       -3.896919    2.714800    0.400710
     16          1           0       -1.636690    3.735890    0.359413
     17          6           0        4.472528    1.097715   -0.729536
     18          6           0        4.376515   -0.136540   -0.128339
     19          6           0        3.110751   -0.696180    0.184227
     20          6           0        1.904935    0.077539    0.078250
     21          6           0        2.048787    1.244661   -0.718951
     22          6           0        3.279322    1.745110   -1.101857
     23          1           0        3.895368   -2.716309    0.399955
     24          1           0        5.439235    1.518084   -0.992587
     25          1           0        5.262567   -0.744518    0.040423
     26          6           0        3.001198   -2.100074    0.356426
     27          6           0        0.605513   -0.453802    0.606809
     28          1           0        1.168986    1.731562   -1.107000
     29          1           0        3.317977    2.636052   -1.723638
     30          6           0        0.581255   -1.848670    0.407908
     31          6           0        1.759388   -2.654196    0.336834
     32          1           0        1.634358   -3.735667    0.360082
     33          8           0        0.537712    2.557891    0.800863
     34          1           0        0.307258    3.496529    0.871205
     35          8           0       -0.538858   -2.555638    0.802906
     36          1           0       -0.309933   -3.494823    0.870945
 ---------------------------------------------------------------------
                    Distance matrix (angstroms):
                    1          2          3          4          5
     1  C    0.000000
     2  C    1.382515   0.000000
     3  C    2.462218   1.420681   0.000000
     4  C    2.764413   2.389546   1.436583   0.000000
     5  C    2.385790   2.770306   2.489418   1.418811   0.000000
     6  C    1.407625   2.428209   2.878545   2.430514   1.376245
     7  H    1.087147   2.134549   3.433596   3.845271   3.369352
     8  H    2.110376   1.077835   2.163840   3.366154   3.838667
     9  C    3.860890   2.593630   1.500328   2.552335   3.855280
    10  C    4.121679   3.640028   2.453785   1.418686   2.445781
    11  H    3.381718   3.855058   3.456995   2.157153   1.087752
    12  H    2.174543   3.412449   3.964020   3.421933   2.148049
    13  C    4.871393   4.049302   2.747686   2.383924   3.661069
    14  C    4.740440   3.604180   2.360239   2.788683   4.197942
    15  H    4.747445   4.511124   3.445407   2.177907   2.676909
    16  H    5.905661   5.112307   3.833039   3.383623   4.550875
    17  C    8.263779   6.927922   6.534359   7.648771   8.921243
    18  C    7.882019   6.545631   6.284572   7.539853   8.756907
    19  C    6.600803   5.265512   5.054297   6.375243   7.539388
    20  C    5.619492   4.243363   3.812482   5.054734   6.284775
    21  C    6.120492   4.793180   4.243856   5.266770   6.546837
    22  C    7.428293   6.120264   5.619970   6.602258   7.883397
    23  H    7.392873   6.224057   6.380038   7.795622   8.765066
    24  H    9.308543   7.984771   7.590798   8.669771   9.950033
    25  H    8.674450   7.366495   7.198042   8.497459   9.680248
    26  C    6.456039   5.232630   5.313539   6.723098   7.723686
    27  C    4.435216   3.069780   2.592525   3.912777   5.069913
    28  H    5.644769   4.399024   3.757893   4.588873   5.852919
    29  H    7.942731   6.697244   6.154768   6.981101   8.246325
    30  C    4.145476   2.923640   3.069988   4.489198   5.366357
    31  C    5.317069   4.194890   4.486678   5.912776   6.755740
    32  H    5.498163   4.574889   5.097584   6.494664   7.165582
    33  O    6.058134   4.842784   3.664903   4.142585   5.557061
    34  H    6.650410   5.527364   4.277140   4.472343   5.851041
    35  O    3.433624   2.512889   2.920982   4.191183   4.778126
    36  H    3.970387   3.258052   3.853592   5.086580   5.541377
                    6          7          8          9         10
     6  C    0.000000
     7  H    2.165093   0.000000
     8  H    3.384880   2.411714   0.000000
     9  C    4.376006   4.726370   2.834094   0.000000
    10  C    3.683675   5.182275   4.492034   2.917668   0.000000
    11  H    2.147279   4.280335   4.919782   4.700534   2.655385
    12  H    1.086475   2.506788   4.277086   5.460272   4.566634
    13  C    4.751090   5.886946   4.654469   2.499251   1.359954
    14  C    5.011558   5.669376   3.931315   1.409195   2.433577
    15  H    4.019368   5.786978   5.430099   3.998178   1.086820
    16  H    5.709698   6.911378   5.679201   3.448189   2.131518
    17  C    9.209778   8.694304   6.320607   5.289656   7.619434
    18  C    8.920423   8.244363   5.851153   5.070140   7.725335
    19  C    7.647673   6.979234   4.587302   3.912916   6.724101
    20  C    6.534171   6.154047   3.757111   2.592630   5.314673
    21  C    6.928672   6.697143   4.398383   3.069782   5.234561
    22  C    8.264497   7.942252   5.643725   4.435283   6.458427
    23  H    8.596170   7.518216   5.374002   5.509409   8.412454
    24  H   10.253757   9.718273   7.362952   6.342032   8.568402
    25  H    9.770825   8.960129   6.605805   6.015701   8.746141
    26  C    7.617175   6.672695   4.434004   4.426728   7.326416
    27  C    5.289463   5.057392   2.777577   1.513727   4.426851
    28  H    6.322122   6.290633   4.176458   2.777257   4.435877
    29  H    8.695615   8.473657   6.289805   5.057400   6.675437
    30  C    5.233121   4.511880   2.317651   2.598724   5.332043
    31  C    6.509874   5.478111   3.392506   3.915366   6.728257
    32  H    6.739365   5.482823   3.745489   4.757821   7.452855
    33  O    6.388194   6.943194   4.994109   2.401326   3.597116
    34  H    6.820571   7.581349   5.780388   3.186527   3.629073
    35  O    4.464929   3.756186   2.174848   3.017680   5.285438
    36  H    5.061567   4.063536   2.787008   3.969570   6.229544
                   11         12         13         14         15
    11  H    0.000000
    12  H    2.493530   0.000000
    13  C    4.000791   5.719577   0.000000
    14  C    4.823792   6.074103   1.429012   0.000000
    15  H    2.426207   4.717225   2.137821   3.425883   0.000000
    16  H    4.712992   6.626024   1.088922   2.161511   2.480517
    17  C    9.772117  10.253665   6.512686   5.235072   8.598841
    18  C    9.680620   9.949033   6.758180   5.368356   8.766969
    19  C    8.497242   8.668505   5.914576   4.490889   7.796736
    20  C    7.198435   7.590549   4.488312   3.071453   6.381272
    21  C    7.368006   7.985529   4.196990   2.924911   6.226264
    22  C    8.676281   9.309262   5.319701   4.147012   7.395704
    23  H    9.795846   9.512072   7.800086   6.395003   9.498246
    24  H   10.779669  11.293413   7.409414   6.190693   9.515103
    25  H   10.629695  10.778121   7.808271   6.405006   9.797595
    26  C    8.744630   8.565883   6.729226   5.333216   8.412431
    27  C    6.015457   6.341819   3.915813   2.599328   5.509484
    28  H    6.607815   7.364549   3.393988   2.317791   5.376183
    29  H    8.962627   9.719659   5.480800   4.513091   7.521554
    30  C    6.402953   6.188690   5.076205   3.877036   6.393696
    31  C    7.805842   7.406373   6.369690   5.076670   7.798975
    32  H    8.229252   7.533592   7.236053   6.009266   8.497364
    33  O    6.125288   7.453585   2.347078   1.382234   4.455412
    34  H    6.269018   7.851683   2.296243   1.928316   4.302043
    35  O    5.811156   5.319544   5.371666   4.423330   6.262256
    36  H    6.570339   5.802499   6.340595   5.371547   7.186585
                   16         17         18         19         20
    16  H    0.000000
    17  C    6.743020   0.000000
    18  C    7.168839   1.376242   0.000000
    19  C    6.497086   2.430526   1.418821   0.000000
    20  C    5.099578   2.878508   2.489421   1.436616   0.000000
    21  C    4.577317   2.428214   2.770353   2.389636   1.420703
    22  C    5.501426   1.407652   2.385828   2.764476   2.462191
    23  H    8.499187   4.019408   2.676902   2.177862   3.445418
    24  H    7.537591   1.086475   2.148041   3.421943   3.963980
    25  H    8.232591   2.147282   1.087753   2.157157   3.457008
    26  C    7.454428   3.683745   2.445805   1.418652   2.453808
    27  C    4.758382   4.375709   3.855069   2.552164   1.500065
    28  H    3.746934   3.384912   3.838727   3.366252   2.163846
    29  H    5.486116   2.165111   3.369384   3.845343   3.433581
    30  C    6.009072   5.011683   4.197970   2.788659   2.360314
    31  C    7.236508   4.751327   3.661193   2.383967   2.747804
    32  H    8.156220   5.709996   4.551010   3.383658   3.833169
    33  O    2.512088   4.467327   4.781191   4.194013   2.922946
    34  H    2.024391   5.066178   5.545911   5.090218   3.856273
    35  O    6.401972   6.388220   5.556991   4.142462   3.664815
    36  H    7.369203   6.820915   5.851447   4.472702   4.277356
                   21         22         23         24         25
    21  C    0.000000
    22  C    1.382491   0.000000
    23  H    4.511219   4.747548   0.000000
    24  H    3.412444   2.174559   4.717286   0.000000
    25  H    3.855109   3.381762   2.426202   2.493529   0.000000
    26  C    3.640161   4.121818   1.086821   4.566720   2.655406
    27  C    2.593348   3.860571   3.998109   5.459970   4.700368
    28  H    1.077824   2.110386   5.430251   4.277112   4.919853
    29  H    2.134528   1.087145   5.787123   2.506795   4.280373
    30  C    3.604464   4.740697   3.425815   6.074240   4.823783
    31  C    4.049632   4.871748   2.137815   5.719839   4.000874
    32  H    5.112703   5.906106   2.480493   6.626364   4.713073
    33  O    2.513515   3.434732   6.265123   5.321897   5.814502
    34  H    3.260741   3.974117   7.189991   5.807336   6.575087
    35  O    4.842957   6.058305   4.455395   7.453630   6.125199
    36  H    5.527571   6.650684   4.302612   7.852065   6.269506
                   26         27         28         29         30
    26  C    0.000000
    27  C    2.917569   0.000000
    28  H    4.492221   2.833806   0.000000
    29  H    5.182461   4.726060   2.411744   0.000000
    30  C    2.433512   1.409187   3.931722   5.669733   0.000000
    31  C    1.359973   2.499209   4.654901   5.887399   1.428958
    32  H    2.131532   3.448193   5.679744   6.911965   2.161497
    33  O    5.287998   3.018700   2.172848   3.756207   4.424261
    34  H    6.232518   3.970387   2.787648   4.066701   5.372231
    35  O    3.597065   2.401198   4.994453   6.943504   1.382201
    36  H    3.629551   3.186788   5.780534   7.581637   1.928325
                   31         32         33         34         35
    31  C    0.000000
    32  H    1.088923   0.000000
    33  O    5.373422   6.403577   0.000000
    34  H    6.342370   7.370692   0.969071   0.000000
    35  O    2.347099   2.512256   5.225628   6.111408   0.000000
    36  H    2.296523   2.024662   6.112181   7.018542   0.969074
                   36
    36  H    0.000000
 Stoichiometry    C20H14O2
 Framework group  C1[X(C20H14O2)]
 Deg. of freedom   102
 Full point group                 C1      NOp   1
 Largest Abelian subgroup         C1      NOp   1
 Largest concise Abelian subgroup C1      NOp   1
                         Standard orientation:                         
 ---------------------------------------------------------------------
 Center     Atomic      Atomic             Coordinates (Angstroms)
 Number     Number       Type             X           Y           Z
 ---------------------------------------------------------------------
      1          6           0        3.277754   -1.745491    1.102845
      2          6           0        2.047525   -1.244274    0.719875
      3          6           0        1.904397   -0.077404   -0.077787
      4          6           0        3.110788    0.695286   -0.184288
      5          6           0        4.376187    0.134799    0.128193
      6          6           0        4.471377   -1.099232    0.729988
      7          1           0        3.315814   -2.636109    1.725131
      8          1           0        1.167441   -1.730216    1.108514
      9          6           0        0.605111    0.454911   -0.606447
     10          6           0        3.002287    2.099276   -0.356649
     11          1           0        5.262668    0.742033   -0.040990
     12          1           0        5.437808   -1.520189    0.993114
     13          6           0        1.760922    2.654323   -0.336367
     14          6           0        0.582062    1.849722   -0.406943
     15          1           0        3.896919    2.714800   -0.400710
     16          1           0        1.636690    3.735890   -0.359413
     17          6           0       -4.472528    1.097715    0.729536
     18          6           0       -4.376515   -0.136540    0.128339
     19          6           0       -3.110751   -0.696180   -0.184227
     20          6           0       -1.904935    0.077539   -0.078250
     21          6           0       -2.048787    1.244661    0.718951
     22          6           0       -3.279322    1.745110    1.101857
     23          1           0       -3.895368   -2.716309   -0.399955
     24          1           0       -5.439235    1.518084    0.992587
     25          1           0       -5.262567   -0.744518   -0.040423
     26          6           0       -3.001198   -2.100074   -0.356426
     27          6           0       -0.605513   -0.453802   -0.606809
     28          1           0       -1.168986    1.731562    1.107000
     29          1           0       -3.317977    2.636052    1.723638
     30          6           0       -0.581255   -1.848670   -0.407908
     31          6           0       -1.759388   -2.654196   -0.336834
     32          1           0       -1.634358   -3.735667   -0.360082
     33          8           0       -0.537712    2.557891   -0.800863
     34          1           0       -0.307258    3.496529   -0.871205
     35          8           0        0.538858   -2.555638   -0.802906
     36          1           0        0.309933   -3.494823   -0.870945
 ---------------------------------------------------------------------
 Rotational constants (GHZ):           0.5473680           0.2278221           0.1726715
 Standard basis: 6-31G(d) (6D, 7F)
 There are   358 symmetry adapted cartesian basis functions of A   symmetry.
 There are   358 symmetry adapted basis functions of A   symmetry.
   358 basis functions,   672 primitive gaussians,   358 cartesian basis functions
    75 alpha electrons       75 beta electrons
       nuclear repulsion energy      1673.4823911208 Hartrees.
 NAtoms=   36 NActive=   36 NUniq=   36 SFac= 1.00D+00 NAtFMM=   60 NAOKFM=F Big=F
 Integral buffers will be    131072 words long.
 Regular integral format.
 Two-electron integral symmetry is turned on.
 One-electron integrals computed using PRISM.
 NBasis=   358 RedAO= T EigKep=  4.11D-04  NBF=   358
 NBsUse=   358 1.00D-06 EigRej= -1.00D+00 NBFU=   358
 ExpMin= 1.61D-01 ExpMax= 5.48D+03 ExpMxC= 8.25D+02 IAcc=3 IRadAn=         5 AccDes= 0.00D+00
 Harris functional with IExCor=  402 and IRadAn=       5 diagonalized for initial guess.
 HarFok:  IExCor=  402 AccDes= 0.00D+00 IRadAn=         5 IDoV= 1 UseB2=F ITyADJ=14
 ICtDFT=  3500011 ScaDFX=  1.000000  1.000000  1.000000  1.000000
 FoFCou: FMM=F IPFlag=           0 FMFlag=      100000 FMFlg1=           0
         NFxFlg=           0 DoJE=T BraDBF=F KetDBF=T FulRan=T
         wScrn=  0.000000 ICntrl=       500 IOpCl=  0 I1Cent=   200000004 NGrid=           0
         NMat0=    1 NMatS0=      1 NMatT0=    0 NMatD0=    1 NMtDS0=    0 NMtDT0=    0
 Petite list used in FoFCou.
 Requested convergence on RMS density matrix=1.00D-08 within 128 cycles.
 Requested convergence on MAX density matrix=1.00D-06.
 Requested convergence on             energy=1.00D-06.
 No special actions if energy rises.
 Integral accuracy reduced to 1.0D-05 until final iterations.
 Initial convergence to 1.0D-05 achieved.  Increase integral accuracy.
 SCF Done:  E(RB3LYP) =  -920.914033562     A.U. after   15 cycles
            NFock= 15  Conv=0.63D-08     -V/T= 2.0096
 DoSCS=F DFT=T ScalE2(SS,OS)=  1.000000  1.000000
 ExpMin= 1.61D-01 ExpMax= 5.48D+03 ExpMxC= 8.25D+02 IAcc=3 IRadAn=         5 AccDes= 0.00D+00
 HarFok:  IExCor=  205 AccDes= 0.00D+00 IRadAn=         5 IDoV=-2 UseB2=F ITyADJ=14
 ICtDFT= 12500011 ScaDFX=  1.000000  1.000000  1.000000  1.000000
 GSVD:  LWork=        -660 too small for GESVD, short by        2750 words or        2750 for optimal perf.
 Range of M.O.s used for correlation:    23   358
 NBasis=   358 NAE=    75 NBE=    75 NFC=    22 NFV=     0
 NROrb=    336 NOA=    53 NOB=    53 NVA=   283 NVB=   283
 Orbital symmetries:
       Occupied  (A) (A) (A) (A) (A) (A) (A) (A) (A) (A) (A) (A)
                 (A) (A) (A) (A) (A) (A) (A) (A) (A) (A) (A) (A)
                 (A) (A) (A) (A) (A) (A) (A) (A) (A) (A) (A) (A)
                 (A) (A) (A) (A) (A) (A) (A) (A) (A) (A) (A) (A)
                 (A) (A) (A) (A) (A) (A) (A) (A) (A) (A) (A) (A)
                 (A) (A) (A) (A) (A) (A) (A) (A) (A) (A) (A) (A)
                 (A) (A) (A)
       Virtual   (A) (A) (A) (A) (A) (A) (A) (A) (A) (A) (A) (A)
                 (A) (A) (A) (A) (A) (A) (A) (A) (A) (A) (A) (A)
                 (A) (A) (A) (A) (A) (A) (A) (A) (A) (A) (A) (A)
                 (A) (A) (A) (A) (A) (A) (A) (A) (A) (A) (A) (A)
                 (A) (A) (A) (A) (A) (A) (A) (A) (A) (A) (A) (A)
                 (A) (A) (A) (A) (A) (A) (A) (A) (A) (A) (A) (A)
                 (A) (A) (A) (A) (A) (A) (A) (A) (A) (A) (A) (A)
                 (A) (A) (A) (A) (A) (A) (A) (A) (A) (A) (A) (A)
                 (A) (A) (A) (A) (A) (A) (A) (A) (A) (A) (A) (A)
                 (A) (A) (A) (A) (A) (A) (A) (A) (A) (A) (A) (A)
                 (A) (A) (A) (A) (A) (A) (A) (A) (A) (A) (A) (A)
                 (A) (A) (A) (A) (A) (A) (A) (A) (A) (A) (A) (A)
                 (A) (A) (A) (A) (A) (A) (A) (A) (A) (A) (A) (A)
                 (A) (A) (A) (A) (A) (A) (A) (A) (A) (A) (A) (A)
                 (A) (A) (A) (A) (A) (A) (A) (A) (A) (A) (A) (A)
                 (A) (A) (A) (A) (A) (A) (A) (A) (A) (A) (A) (A)
                 (A) (A) (A) (A) (A) (A) (A) (A) (A) (A) (A) (A)
                 (A) (A) (A) (A) (A) (A) (A) (A) (A) (A) (A) (A)
                 (A) (A) (A) (A) (A) (A) (A) (A) (A) (A) (A) (A)
                 (A) (A) (A) (A) (A) (A) (A) (A) (A) (A) (A) (A)
                 (A) (A) (A) (A) (A) (A) (A) (A) (A) (A) (A) (A)
                 (A) (A) (A) (A) (A) (A) (A) (A) (A) (A) (A) (A)
                 (A) (A) (A) (A) (A) (A) (A) (A) (A) (A) (A) (A)
                 (A) (A) (A) (A) (A) (A) (A)
    64 initial guesses have been made.
 Convergence on wavefunction:    0.001000000000000
 Iteration     1 Dimension    64 NMult     0 NNew     64
 CISAX will form    64 AO SS matrices at one time.
 New state      5 was old state      8
 New state      6 was old state      5
 New state      7 was old state      6
 New state      8 was old state      7
 New state      9 was old state     13
 New state     10 was old state     11
 New state     11 was old state     12
 New state     12 was old state     16
 New state     13 was old state     18
 New state     14 was old state     15
 New state     15 was old state     20
 New state     16 was old state     19
 Iteration     2 Dimension    96 NMult    64 NNew     32
 New state      5 was old state      6
 New state      6 was old state      5
 New state      7 was old state      8
 New state      8 was old state      7
 New state     12 was old state     14
 New state     13 was old state     12
 New state     14 was old state     13
 Iteration     3 Dimension   128 NMult    96 NNew     32
 Iteration     4 Dimension   160 NMult   128 NNew     32
 Iteration     5 Dimension   176 NMult   160 NNew     16
 Iteration     6 Dimension   180 NMult   176 NNew      4
 ***********************************************************************
 Excited states from <AA,BB:AA,BB> singles matrix:
 ***********************************************************************
 
 Ground to excited state transition densities written to RWF  633
 Ground to excited state transition electric dipole moments (Au):
       state          X           Y           Z        Dip. S.      Osc.
         1        -1.8720     -0.6759     -0.0003      3.9614      0.3096
         2         0.0019     -0.0007     -0.0694      0.0048      0.0004
         3         0.4309     -0.4294      0.0004      0.3700      0.0342
         4         0.0016     -0.0009     -0.1225      0.0150      0.0014
         5         0.0009     -0.0014      0.1132      0.0128      0.0013
         6         0.0490     -0.4050     -0.0009      0.1664      0.0176
         7         0.0007     -0.0030      0.3511      0.1233      0.0134
         8         0.8232     -0.6317     -0.0007      1.0767      0.1183
         9         0.1938     -0.4506     -0.0006      0.2406      0.0279
        10         0.0002      0.0006      0.0061      0.0000      0.0000
        11        -0.1799      0.1653      0.0004      0.0597      0.0073
        12        -0.9942      0.0620     -0.0005      0.9923      0.1253
        13         0.0037      0.0021     -0.3936      0.1549      0.0197
        14         0.2737      0.4047     -0.0007      0.2387      0.0308
        15         0.0019      0.0008      0.0328      0.0011      0.0001
        16        -0.0130     -0.0070      0.5126      0.2629      0.0348
 Ground to excited state transition velocity dipole moments (Au):
       state          X           Y           Z        Dip. S.      Osc.
         1         0.2242      0.0822      0.0000      0.0570      0.3244
         2        -0.0002      0.0001      0.0067      0.0000      0.0002
         3        -0.0578      0.0594     -0.0000      0.0069      0.0331
         4        -0.0002      0.0001      0.0132      0.0002      0.0008
         5        -0.0001      0.0002     -0.0156      0.0002      0.0011
         6        -0.0046      0.0568      0.0001      0.0033      0.0137
         7        -0.0001      0.0005     -0.0614      0.0038      0.0154
         8        -0.1368      0.1061      0.0001      0.0300      0.1212
         9        -0.0232      0.0782      0.0001      0.0066      0.0255
        10        -0.0001     -0.0001     -0.0029      0.0000      0.0000
        11         0.0276     -0.0389     -0.0001      0.0023      0.0083
        12         0.1801     -0.0082      0.0001      0.0325      0.1144
        13        -0.0007     -0.0004      0.0758      0.0057      0.0200
        14        -0.0543     -0.0766      0.0001      0.0088      0.0304
        15        -0.0004     -0.0002     -0.0027      0.0000      0.0000
        16         0.0026      0.0014     -0.1063      0.0113      0.0380
 Ground to excited state transition magnetic dipole moments (Au):
       state          X           Y           Z
         1         0.2196     -0.1635     -0.0019
         2        -0.0003      0.0005     -1.0061
         3         0.0105      0.2364      0.0028
         4        -0.0001      0.0004     -0.5881
         5        -0.0003      0.0002      0.4973
         6         0.1951     -0.1413     -0.0041
         7         0.0006      0.0003      1.6449
         8        -0.0473      0.2905     -0.0040
         9        -0.1076      0.2155     -0.0026
        10         0.0003     -0.0003      0.2441
        11         0.0784     -0.4550      0.0018
        12         0.2035     -0.7731     -0.0017
        13        -0.0002     -0.0002     -1.7518
        14         0.0539     -0.2836     -0.0022
        15         0.0006     -0.0011      0.3783
        16         0.0001      0.0056      1.6336
 Ground to excited state transition velocity quadrupole moments (Au):
       state          XX          YY          ZZ          XY          XZ          YZ
         1        -0.0000     -0.0001      0.0000     -0.0003      0.1152     -0.1832
         2        -0.1698     -0.1901      0.0356     -0.1622     -0.0001      0.0000
         3        -0.0004      0.0006     -0.0001      0.0009     -0.0902      0.0213
         4         0.3458     -0.1322      0.0139     -0.1863     -0.0003     -0.0000
         5        -1.0824      0.0077      0.0330     -0.1511     -0.0001     -0.0001
         6         0.0016     -0.0006      0.0001     -0.0007      0.0088     -0.0578
         7        -0.5996      0.3801     -0.0738      0.5546     -0.0004     -0.0001
         8         0.0016     -0.0007      0.0001     -0.0012     -0.2011      0.0411
         9         0.0023     -0.0006      0.0001     -0.0012     -0.1105     -0.0096
        10        -0.0790      0.1088      0.0256      0.0525      0.0003      0.0000
        11        -0.0018      0.0007      0.0000      0.0009      0.1355     -0.0633
        12         0.0002     -0.0004      0.0002     -0.0010      0.2875     -0.2189
        13         1.0837     -0.5280      0.1007     -0.9059      0.0002     -0.0003
        14         0.0016     -0.0007      0.0002     -0.0006      0.1464     -0.0949
        15         0.4934      0.1587     -0.0484      0.2992      0.0004     -0.0005
        16        -2.2662      0.5822     -0.0599      0.7766     -0.0017      0.0025
 <0|del|b> * <b|rxdel|0> + <0|del|b> * <b|delr+rdel|0>
 Rotatory Strengths (R) in cgs (10**-40 erg-esu-cm/Gauss)
       state          XX          YY          ZZ    R(velocity)    E-M Angle
         1       -69.0973     24.6287    260.4479     71.9931       56.80
         2       -21.0315    -15.1906      0.0003    -12.0739      177.72
         3        49.5617     -4.7022     23.7747     22.8781       46.75
         4       -25.4995    -13.2306      0.0001    -12.9100      178.92
         5       -12.5017    -23.4093      0.0001    -11.9703      179.06
         6       -19.0181     -1.4081    -19.3748    -13.2670      130.52
         7      -292.7553   -145.1245     -0.0002   -145.9600      179.56
         8       111.8803      1.8303     46.2906     53.3337       42.96
         9        51.7488      5.5108     21.2777     26.1791       10.04
        10        -1.7096     -1.1043     -0.0000     -0.9380       90.00
        11        44.3480      0.8048     31.5564     25.5697       25.60
        12        16.3349     -5.1886    149.5135     53.5533       72.63
        13      -372.7625   -118.6475     -0.0002   -163.8034      179.38
        14        60.1488      4.0665      4.4349     22.8834       46.10
        15        -3.3173     -0.3873     -0.0005     -1.2351      171.32
        16      -456.3453   -162.2719     -0.0013   -206.2062      178.27
 1/2[<0|r|b>*<b|rxdel|0> + (<0|rxdel|b>*<b|r|0>)*]
 Rotatory Strengths (R) in cgs (10**-40 erg-esu-cm/Gauss)
       state          XX          YY          ZZ     R(length)
         1       290.7159    -78.1331     -0.0004     70.8608
         2         0.0003      0.0003    -49.3702    -16.4565
         3        -3.2061     71.7788     -0.0008     22.8573
         4         0.0001      0.0002    -50.9479    -16.9825
         5         0.0002      0.0002    -39.8132    -13.2709
         6        -6.7560    -40.4638     -0.0026    -15.7408
         7        -0.0003      0.0006   -408.3853   -136.1283
         8        27.5380    129.7487     -0.0020     52.4282
         9        14.7385     68.6675     -0.0011     27.8017
        10        -0.0000      0.0001     -1.0485     -0.3495
        11         9.9792     53.1870     -0.0006     21.0552
        12       143.0537     33.9141     -0.0006     58.9891
        13         0.0004      0.0003   -487.6107   -162.5366
        14       -10.4284     81.1814     -0.0010     23.5840
        15        -0.0008      0.0007     -8.7874     -2.9292
        16         0.0007      0.0274   -592.1446   -197.3722
  1/2[<0|del|b>*<b|r|0> + (<0|r|b>*<b|del|0>)*] (Au)
       state          X           Y           Z        Dip. S.   Osc.(frdel)
         1        -0.4197     -0.0556     -0.0000      0.4753      0.3169
         2        -0.0000     -0.0000     -0.0005      0.0005      0.0003
         3        -0.0249     -0.0255     -0.0000      0.0504      0.0336
         4        -0.0000     -0.0000     -0.0016      0.0016      0.0011
         5        -0.0000     -0.0000     -0.0018      0.0018      0.0012
         6        -0.0002     -0.0230     -0.0000      0.0232      0.0155
         7        -0.0000     -0.0000     -0.0215      0.0216      0.0144
         8        -0.1126     -0.0670     -0.0000      0.1796      0.1198
         9        -0.0045     -0.0352     -0.0000      0.0397      0.0265
        10        -0.0000     -0.0000     -0.0000      0.0000      0.0000
        11        -0.0050     -0.0064     -0.0000      0.0114      0.0076
        12        -0.1790     -0.0005     -0.0000      0.1795      0.1197
        13        -0.0000     -0.0000     -0.0298      0.0298      0.0199
        14        -0.0149     -0.0310     -0.0000      0.0459      0.0306
        15        -0.0000     -0.0000     -0.0001      0.0001      0.0001
        16        -0.0000     -0.0000     -0.0545      0.0546      0.0364

 Excitation energies and oscillator strengths:
 
 Excited State   1:      Singlet-A      3.1896 eV  388.71 nm  f=0.3096  <S**2>=0.000
      75 -> 76         0.70141
 This state for optimization and/or second-order correction.
 Total Energy, E(TD-HF/TD-DFT) =  -920.796816943    
 Copying the excited state density for this state as the 1-particle RhoCI density.
 
 Excited State   2:      Singlet-A      3.5581 eV  348.46 nm  f=0.0004  <S**2>=0.000
      72 -> 76         0.10316
      74 -> 76         0.67480
      75 -> 79         0.14073
 
 Excited State   3:      Singlet-A      3.7687 eV  328.98 nm  f=0.0342  <S**2>=0.000
      73 -> 76         0.60590
      75 -> 78        -0.33737
 
 Excited State   4:      Singlet-A      3.8561 eV  321.53 nm  f=0.0014  <S**2>=0.000
      72 -> 76         0.57998
      74 -> 76        -0.11172
      75 -> 77         0.28921
      75 -> 79         0.23126
 
 Excited State   5:      Singlet-A      4.1575 eV  298.22 nm  f=0.0013  <S**2>=0.000
      72 -> 76        -0.25033
      74 -> 76         0.10836
      75 -> 77         0.61793
 
 Excited State   6:      Singlet-A      4.3164 eV  287.24 nm  f=0.0176  <S**2>=0.000
      71 -> 76         0.60654
      72 -> 77        -0.12173
      73 -> 76         0.17271
      74 -> 77        -0.20621
      75 -> 78         0.16184
 
 Excited State   7:      Singlet-A      4.4367 eV  279.45 nm  f=0.0134  <S**2>=0.000
      72 -> 76        -0.25901
      73 -> 77         0.24917
      75 -> 79         0.59402
 
 Excited State   8:      Singlet-A      4.4842 eV  276.49 nm  f=0.1183  <S**2>=0.000
      71 -> 76        -0.32308
      72 -> 77        -0.18360
      73 -> 76         0.25000
      74 -> 77        -0.22880
      74 -> 79         0.11054
      75 -> 78         0.47911
 
 Excited State   9:      Singlet-A      4.7377 eV  261.70 nm  f=0.0279  <S**2>=0.000
      71 -> 76         0.11480
      72 -> 79        -0.14608
      73 -> 78         0.13332
      74 -> 77         0.54993
      74 -> 79         0.26463
      75 -> 78         0.25670
 
 Excited State  10:      Singlet-A      4.8258 eV  256.92 nm  f=0.0000  <S**2>=0.000
      72 -> 78        -0.15493
      73 -> 77        -0.35840
      73 -> 79         0.15515
      74 -> 78         0.52947
      75 -> 79         0.16220
 
 Excited State  11:      Singlet-A      4.9816 eV  248.88 nm  f=0.0073  <S**2>=0.000
      72 -> 77         0.45726
      74 -> 77        -0.23748
      74 -> 79         0.46312
 
 Excited State  12:      Singlet-A      5.1520 eV  240.65 nm  f=0.1253  <S**2>=0.000
      72 -> 77        -0.11907
      73 -> 78        -0.14860
      74 -> 79         0.15834
      75 -> 80         0.64881
 
 Excited State  13:      Singlet-A      5.2002 eV  238.42 nm  f=0.0197  <S**2>=0.000
      71 -> 77         0.12935
      72 -> 78         0.12958
      73 -> 77         0.44039
      73 -> 79         0.41597
      74 -> 78         0.22715
      75 -> 79        -0.12903
 
 Excited State  14:      Singlet-A      5.2717 eV  235.19 nm  f=0.0308  <S**2>=0.000
      72 -> 79         0.29198
      73 -> 78         0.61370
 
 Excited State  15:      Singlet-A      5.3308 eV  232.58 nm  f=0.0001  <S**2>=0.000
      70 -> 76         0.16912
      71 -> 77        -0.27568
      71 -> 79        -0.10776
      72 -> 78         0.56454
      74 -> 78         0.15498
 
 Excited State  16:      Singlet-A      5.4035 eV  229.45 nm  f=0.0348  <S**2>=0.000
      69 -> 76        -0.14896
      70 -> 76         0.20320
      71 -> 77         0.15000
      71 -> 79         0.16065
      72 -> 78         0.14006
      73 -> 77        -0.23632
      73 -> 79         0.40948
      74 -> 78        -0.30553
      75 -> 79         0.10129
 SavETr:  write IOETrn=   770 NScale= 10 NData=  16 NLR=1 NState=   16 LETran=     298.

 **********************************************************************

            Population analysis using the SCF Density.

 **********************************************************************

 Orbital symmetries:
       Occupied  (A) (A) (A) (A) (A) (A) (A) (A) (A) (A) (A) (A)
                 (A) (A) (A) (A) (A) (A) (A) (A) (A) (A) (A) (A)
                 (A) (A) (A) (A) (A) (A) (A) (A) (A) (A) (A) (A)
                 (A) (A) (A) (A) (A) (A) (A) (A) (A) (A) (A) (A)
                 (A) (A) (A) (A) (A) (A) (A) (A) (A) (A) (A) (A)
                 (A) (A) (A) (A) (A) (A) (A) (A) (A) (A) (A) (A)
                 (A) (A) (A)
       Virtual   (A) (A) (A) (A) (A) (A) (A) (A) (A) (A) (A) (A)
                 (A) (A) (A) (A) (A) (A) (A) (A) (A) (A) (A) (A)
                 (A) (A) (A) (A) (A) (A) (A) (A) (A) (A) (A) (A)
                 (A) (A) (A) (A) (A) (A) (A) (A) (A) (A) (A) (A)
                 (A) (A) (A) (A) (A) (A) (A) (A) (A) (A) (A) (A)
                 (A) (A) (A) (A) (A) (A) (A) (A) (A) (A) (A) (A)
                 (A) (A) (A) (A) (A) (A) (A) (A) (A) (A) (A) (A)
                 (A) (A) (A) (A) (A) (A) (A) (A) (A) (A) (A) (A)
                 (A) (A) (A) (A) (A) (A) (A) (A) (A) (A) (A) (A)
                 (A) (A) (A) (A) (A) (A) (A) (A) (A) (A) (A) (A)
                 (A) (A) (A) (A) (A) (A) (A) (A) (A) (A) (A) (A)
                 (A) (A) (A) (A) (A) (A) (A) (A) (A) (A) (A) (A)
                 (A) (A) (A) (A) (A) (A) (A) (A) (A) (A) (A) (A)
                 (A) (A) (A) (A) (A) (A) (A) (A) (A) (A) (A) (A)
                 (A) (A) (A) (A) (A) (A) (A) (A) (A) (A) (A) (A)
                 (A) (A) (A) (A) (A) (A) (A) (A) (A) (A) (A) (A)
                 (A) (A) (A) (A) (A) (A) (A) (A) (A) (A) (A) (A)
                 (A) (A) (A) (A) (A) (A) (A) (A) (A) (A) (A) (A)
                 (A) (A) (A) (A) (A) (A) (A) (A) (A) (A) (A) (A)
                 (A) (A) (A) (A) (A) (A) (A) (A) (A) (A) (A) (A)
                 (A) (A) (A) (A) (A) (A) (A) (A) (A) (A) (A) (A)
                 (A) (A) (A) (A) (A) (A) (A) (A) (A) (A) (A) (A)
                 (A) (A) (A) (A) (A) (A) (A) (A) (A) (A) (A) (A)
                 (A) (A) (A) (A) (A) (A) (A)
 The electronic state is 1-A.
 Alpha  occ. eigenvalues --  -19.17116 -19.17115 -10.25403 -10.25402 -10.20519
 Alpha  occ. eigenvalues --  -10.20495 -10.19567 -10.19567 -10.19393 -10.19392
 Alpha  occ. eigenvalues --  -10.19300 -10.19299 -10.18852 -10.18851 -10.18089
 Alpha  occ. eigenvalues --  -10.18088 -10.17880 -10.17880 -10.17750 -10.17750
 Alpha  occ. eigenvalues --  -10.17469 -10.17465  -1.05440  -1.05377  -0.86742
 Alpha  occ. eigenvalues --   -0.86039  -0.81250  -0.80766  -0.78613  -0.74968
 Alpha  occ. eigenvalues --   -0.72688  -0.72604  -0.71704  -0.70627  -0.63078
 Alpha  occ. eigenvalues --   -0.62546  -0.60686  -0.60651  -0.59473  -0.56610
 Alpha  occ. eigenvalues --   -0.54985  -0.54365  -0.51759  -0.50135  -0.48832
 Alpha  occ. eigenvalues --   -0.48464  -0.46371  -0.46214  -0.44773  -0.43765
 Alpha  occ. eigenvalues --   -0.42641  -0.42293  -0.41718  -0.41307  -0.40632
 Alpha  occ. eigenvalues --   -0.39940  -0.38829  -0.38562  -0.38357  -0.36867
 Alpha  occ. eigenvalues --   -0.36226  -0.35824  -0.34968  -0.33126  -0.32837
 Alpha  occ. eigenvalues --   -0.32722  -0.32137  -0.30315  -0.29143  -0.28133
 Alpha  occ. eigenvalues --   -0.24264  -0.22184  -0.21824  -0.21106  -0.18667
 Alpha virt. eigenvalues --   -0.05584  -0.01559  -0.00549  -0.00348   0.02770
 Alpha virt. eigenvalues --    0.04940   0.06895   0.07270   0.08621   0.08974
 Alpha virt. eigenvalues --    0.11057   0.11403   0.12332   0.12622   0.14110
 Alpha virt. eigenvalues --    0.15434   0.16764   0.16911   0.17438   0.17761
 Alpha virt. eigenvalues --    0.19408   0.19826   0.20651   0.22452   0.23200
 Alpha virt. eigenvalues --    0.23862   0.25005   0.26723   0.27064   0.29009
 Alpha virt. eigenvalues --    0.29588   0.31188   0.31547   0.33884   0.34112
 Alpha virt. eigenvalues --    0.35141   0.35437   0.36409   0.38055   0.39316
 Alpha virt. eigenvalues --    0.39630   0.45360   0.47304   0.47843   0.49866
 Alpha virt. eigenvalues --    0.50682   0.51109   0.51853   0.52623   0.53375
 Alpha virt. eigenvalues --    0.53587   0.54753   0.55192   0.55402   0.55771
 Alpha virt. eigenvalues --    0.56866   0.57275   0.57981   0.58357   0.58939
 Alpha virt. eigenvalues --    0.59348   0.59640   0.60075   0.60228   0.61065
 Alpha virt. eigenvalues --    0.61307   0.61718   0.62039   0.62873   0.63030
 Alpha virt. eigenvalues --    0.63975   0.64049   0.64362   0.64450   0.64700
 Alpha virt. eigenvalues --    0.64834   0.66441   0.68490   0.69481   0.70140
 Alpha virt. eigenvalues --    0.71554   0.72033   0.73192   0.73385   0.77492
 Alpha virt. eigenvalues --    0.79047   0.79387   0.80501   0.81901   0.82639
 Alpha virt. eigenvalues --    0.83658   0.83966   0.83996   0.84833   0.84920
 Alpha virt. eigenvalues --    0.85232   0.85598   0.85957   0.87246   0.87430
 Alpha virt. eigenvalues --    0.89089   0.89886   0.90352   0.92546   0.93295
 Alpha virt. eigenvalues --    0.94284   0.94311   0.95182   0.95498   0.96901
 Alpha virt. eigenvalues --    0.97418   0.98008   0.98840   1.00457   1.00493
 Alpha virt. eigenvalues --    1.02476   1.02880   1.04538   1.05017   1.06426
 Alpha virt. eigenvalues --    1.08116   1.08643   1.09639   1.11351   1.11368
 Alpha virt. eigenvalues --    1.12705   1.12821   1.16457   1.17279   1.18356
 Alpha virt. eigenvalues --    1.21024   1.21963   1.23007   1.23974   1.26602
 Alpha virt. eigenvalues --    1.27167   1.29719   1.30461   1.30547   1.31001
 Alpha virt. eigenvalues --    1.34295   1.36490   1.38748   1.39729   1.42859
 Alpha virt. eigenvalues --    1.43554   1.44407   1.46500   1.47004   1.47189
 Alpha virt. eigenvalues --    1.47873   1.49167   1.51339   1.52588   1.53006
 Alpha virt. eigenvalues --    1.53206   1.54231   1.56123   1.58254   1.60709
 Alpha virt. eigenvalues --    1.64244   1.65329   1.67595   1.69072   1.72193
 Alpha virt. eigenvalues --    1.75037   1.75594   1.77917   1.78837   1.78856
 Alpha virt. eigenvalues --    1.79313   1.79556   1.80460   1.81089   1.81370
 Alpha virt. eigenvalues --    1.82395   1.84604   1.86206   1.89137   1.89412
 Alpha virt. eigenvalues --    1.90246   1.90629   1.92016   1.92327   1.93614
 Alpha virt. eigenvalues --    1.96103   1.97093   1.97130   1.99223   1.99591
 Alpha virt. eigenvalues --    2.01290   2.02356   2.03862   2.04745   2.05866
 Alpha virt. eigenvalues --    2.06424   2.07701   2.08651   2.11125   2.13928
 Alpha virt. eigenvalues --    2.14661   2.16825   2.16904   2.18610   2.22156
 Alpha virt. eigenvalues --    2.22319   2.23907   2.23953   2.27288   2.27795
 Alpha virt. eigenvalues --    2.28886   2.30743   2.31299   2.31617   2.32699
 Alpha virt. eigenvalues --    2.34205   2.34387   2.36527   2.36578   2.38745
 Alpha virt. eigenvalues --    2.41059   2.41439   2.44721   2.46855   2.49800
 Alpha virt. eigenvalues --    2.51689   2.56288   2.56446   2.58464   2.59492
 Alpha virt. eigenvalues --    2.60760   2.60839   2.63544   2.64351   2.65324
 Alpha virt. eigenvalues --    2.66092   2.68171   2.68979   2.71091   2.72345
 Alpha virt. eigenvalues --    2.74413   2.74691   2.76796   2.80945   2.82036
 Alpha virt. eigenvalues --    2.83548   2.85601   2.86611   2.87875   2.92802
 Alpha virt. eigenvalues --    2.93624   2.96194   3.00590   3.03126   3.05470
 Alpha virt. eigenvalues --    3.06301   3.13175   3.30572   3.33288   3.42123
 Alpha virt. eigenvalues --    3.44071   3.95362   4.02052   4.10306   4.10413
 Alpha virt. eigenvalues --    4.11264   4.11980   4.13378   4.15338   4.16872
 Alpha virt. eigenvalues --    4.17503   4.21629   4.24075   4.31389   4.35497
 Alpha virt. eigenvalues --    4.40571   4.41054   4.44554   4.48375   4.56116
 Alpha virt. eigenvalues --    4.63605   4.73606   4.83093
          Condensed to atoms (all electrons):
               1          2          3          4          5          6
     1  C    4.895346   0.535251  -0.023580  -0.036213  -0.034533   0.515824
     2  C    0.535251   4.999705   0.469508  -0.027236  -0.056125  -0.024004
     3  C   -0.023580   0.469508   4.954866   0.467994  -0.043282  -0.031590
     4  C   -0.036213  -0.027236   0.467994   4.738676   0.469946  -0.017444
     5  C   -0.034533  -0.056125  -0.043282   0.469946   5.043963   0.536246
     6  C    0.515824  -0.024004  -0.031590  -0.017444   0.536246   4.879613
     7  H    0.357728  -0.039859   0.004058   0.000766   0.004885  -0.045258
     8  H   -0.039207   0.349865  -0.044052   0.004756   0.000762   0.004862
     9  C    0.005155  -0.051288   0.356770  -0.024787   0.006622  -0.000078
    10  C    0.000276   0.009532  -0.047800   0.456207  -0.058277   0.006268
    11  H    0.004545   0.000492   0.004430  -0.044035   0.354501  -0.044336
    12  H   -0.041698   0.004698   0.000721   0.003607  -0.040076   0.355942
    13  C    0.000048   0.000974  -0.045136  -0.019284   0.006642  -0.000346
    14  C   -0.000055   0.000692  -0.009676  -0.041663   0.000444   0.000012
    15  H   -0.000019  -0.000176   0.005487  -0.040835  -0.008095   0.000118
    16  H   -0.000000   0.000017   0.000630   0.003758  -0.000216   0.000004
    17  C    0.000000  -0.000000  -0.000000  -0.000000  -0.000000  -0.000000
    18  C   -0.000000   0.000000   0.000000  -0.000000   0.000000  -0.000000
    19  C   -0.000000   0.000008  -0.000092   0.000000  -0.000000  -0.000000
    20  C    0.000002   0.000144   0.001324  -0.000092   0.000000  -0.000000
    21  C    0.000000  -0.000000   0.000143   0.000008   0.000000  -0.000000
    22  C   -0.000000   0.000000   0.000002  -0.000000  -0.000000   0.000000
    23  H   -0.000000  -0.000000   0.000000   0.000000  -0.000000   0.000000
    24  H   -0.000000  -0.000000   0.000000  -0.000000  -0.000000   0.000000
    25  H    0.000000   0.000000  -0.000000   0.000000  -0.000000  -0.000000
    26  C    0.000000  -0.000024   0.000003   0.000000  -0.000000   0.000000
    27  C    0.000811  -0.013291  -0.050096   0.005264  -0.000136  -0.000018
    28  H    0.000001  -0.000013  -0.000185  -0.000019  -0.000001   0.000000
    29  H   -0.000000  -0.000000  -0.000000   0.000000   0.000000  -0.000000
    30  C    0.000223   0.002219  -0.008886   0.000316   0.000006  -0.000007
    31  C   -0.000045   0.000034   0.000450   0.000002  -0.000000   0.000000
    32  H    0.000000   0.000006   0.000002  -0.000000   0.000000  -0.000000
    33  O    0.000000  -0.000058   0.001903   0.000378   0.000000  -0.000000
    34  H   -0.000000   0.000005  -0.000127  -0.000066  -0.000001   0.000000
    35  O   -0.001858  -0.024939  -0.003768  -0.000494   0.000043  -0.000049
    36  H    0.000222   0.001827   0.000328   0.000021  -0.000003  -0.000001
               7          8          9         10         11         12
     1  C    0.357728  -0.039207   0.005155   0.000276   0.004545  -0.041698
     2  C   -0.039859   0.349865  -0.051288   0.009532   0.000492   0.004698
     3  C    0.004058  -0.044052   0.356770  -0.047800   0.004430   0.000721
     4  C    0.000766   0.004756  -0.024787   0.456207  -0.044035   0.003607
     5  C    0.004885   0.000762   0.006622  -0.058277   0.354501  -0.040076
     6  C   -0.045258   0.004862  -0.000078   0.006268  -0.044336   0.355942
     7  H    0.608780  -0.006750  -0.000130   0.000007  -0.000213  -0.004920
     8  H   -0.006750   0.596078  -0.009500  -0.000193   0.000019  -0.000196
     9  C   -0.000130  -0.009500   5.138402  -0.031667  -0.000129   0.000010
    10  C    0.000007  -0.000193  -0.031667   5.012754  -0.009129  -0.000199
    11  H   -0.000213   0.000019  -0.000129  -0.009129   0.608738  -0.005480
    12  H   -0.004920  -0.000196   0.000010  -0.000199  -0.005480   0.603320
    13  C    0.000000   0.000026  -0.040043   0.512728   0.000333   0.000003
    14  C   -0.000000  -0.000366   0.458514  -0.021740   0.000001  -0.000000
    15  H   -0.000000   0.000005   0.000024   0.350706   0.006487  -0.000012
    16  H    0.000000  -0.000000   0.004636  -0.027492  -0.000007  -0.000000
    17  C   -0.000000   0.000000  -0.000018   0.000000  -0.000000   0.000000
    18  C    0.000000  -0.000001  -0.000136  -0.000000  -0.000000  -0.000000
    19  C    0.000000  -0.000019   0.005266   0.000000   0.000000  -0.000000
    20  C   -0.000000  -0.000185  -0.050135   0.000003  -0.000000   0.000000
    21  C   -0.000000  -0.000013  -0.013278  -0.000024   0.000000  -0.000000
    22  C   -0.000000   0.000001   0.000811   0.000000   0.000000  -0.000000
    23  H   -0.000000  -0.000001   0.000007   0.000000   0.000000   0.000000
    24  H    0.000000  -0.000000   0.000000   0.000000  -0.000000   0.000000
    25  H    0.000000   0.000000   0.000001  -0.000000   0.000000  -0.000000
    26  C   -0.000000   0.000048  -0.000098   0.000000  -0.000000   0.000000
    27  C    0.000006   0.001035   0.342347  -0.000097   0.000001   0.000000
    28  H   -0.000000  -0.000006   0.001037   0.000048   0.000000  -0.000000
    29  H    0.000000  -0.000000   0.000006  -0.000000   0.000000   0.000000
    30  C    0.000017   0.014206  -0.042909  -0.000009   0.000000  -0.000000
    31  C   -0.000001   0.000944   0.005902  -0.000000   0.000000  -0.000000
    32  H    0.000000  -0.000014  -0.000075   0.000000  -0.000000  -0.000000
    33  O   -0.000000  -0.000001  -0.061169   0.005077  -0.000000   0.000000
    34  H    0.000000   0.000000   0.005538   0.001129   0.000000  -0.000000
    35  O    0.000009  -0.010029   0.002868  -0.000005   0.000000   0.000001
    36  H    0.000016   0.001505  -0.000464   0.000000  -0.000000  -0.000000
              13         14         15         16         17         18
     1  C    0.000048  -0.000055  -0.000019  -0.000000   0.000000  -0.000000
     2  C    0.000974   0.000692  -0.000176   0.000017  -0.000000   0.000000
     3  C   -0.045136  -0.009676   0.005487   0.000630  -0.000000   0.000000
     4  C   -0.019284  -0.041663  -0.040835   0.003758  -0.000000  -0.000000
     5  C    0.006642   0.000444  -0.008095  -0.000216  -0.000000   0.000000
     6  C   -0.000346   0.000012   0.000118   0.000004  -0.000000  -0.000000
     7  H    0.000000  -0.000000  -0.000000   0.000000  -0.000000   0.000000
     8  H    0.000026  -0.000366   0.000005  -0.000000   0.000000  -0.000001
     9  C   -0.040043   0.458514   0.000024   0.004636  -0.000018  -0.000136
    10  C    0.512728  -0.021740   0.350706  -0.027492   0.000000  -0.000000
    11  H    0.000333   0.000001   0.006487  -0.000007  -0.000000  -0.000000
    12  H    0.000003  -0.000000  -0.000012  -0.000000   0.000000  -0.000000
    13  C    5.094618   0.444981  -0.041623   0.342339   0.000000  -0.000000
    14  C    0.444981   4.753205   0.004354  -0.049486  -0.000007   0.000006
    15  H   -0.041623   0.004354   0.594416  -0.005605   0.000000  -0.000000
    16  H    0.342339  -0.049486  -0.005605   0.607636  -0.000000   0.000000
    17  C    0.000000  -0.000007   0.000000  -0.000000   4.879706   0.536209
    18  C   -0.000000   0.000006  -0.000000   0.000000   0.536209   5.044022
    19  C    0.000002   0.000313   0.000000  -0.000000  -0.017423   0.469922
    20  C    0.000448  -0.008898   0.000000   0.000002  -0.031599  -0.043265
    21  C    0.000037   0.002241  -0.000000   0.000005  -0.024000  -0.056140
    22  C   -0.000045   0.000223  -0.000000   0.000000   0.515761  -0.034504
    23  H    0.000000  -0.000000   0.000000  -0.000000   0.000119  -0.008096
    24  H   -0.000000  -0.000000   0.000000  -0.000000   0.355941  -0.040075
    25  H    0.000000   0.000000   0.000000  -0.000000  -0.044336   0.354507
    26  C   -0.000000  -0.000009   0.000000   0.000000   0.006270  -0.058317
    27  C    0.005900  -0.042911   0.000007  -0.000075  -0.000080   0.006633
    28  H    0.000936   0.014130  -0.000001  -0.000014   0.004862   0.000761
    29  H   -0.000001   0.000017  -0.000000   0.000000  -0.045263   0.004884
    30  C   -0.000072   0.003445  -0.000000   0.000001   0.000013   0.000442
    31  C    0.000001  -0.000073   0.000000  -0.000000  -0.000346   0.006650
    32  H   -0.000000   0.000001  -0.000000   0.000000   0.000004  -0.000216
    33  O   -0.044182   0.234589  -0.000064  -0.007156  -0.000048   0.000042
    34  H   -0.002548  -0.031204  -0.000030   0.010840  -0.000001  -0.000003
    35  O   -0.000001   0.000149   0.000000  -0.000000  -0.000000   0.000000
    36  H   -0.000000   0.000002  -0.000000   0.000000   0.000000  -0.000001
              19         20         21         22         23         24
     1  C   -0.000000   0.000002   0.000000  -0.000000  -0.000000  -0.000000
     2  C    0.000008   0.000144  -0.000000   0.000000  -0.000000  -0.000000
     3  C   -0.000092   0.001324   0.000143   0.000002   0.000000   0.000000
     4  C    0.000000  -0.000092   0.000008  -0.000000   0.000000  -0.000000
     5  C   -0.000000   0.000000   0.000000  -0.000000  -0.000000  -0.000000
     6  C   -0.000000  -0.000000  -0.000000   0.000000   0.000000   0.000000
     7  H    0.000000  -0.000000  -0.000000  -0.000000  -0.000000   0.000000
     8  H   -0.000019  -0.000185  -0.000013   0.000001  -0.000001  -0.000000
     9  C    0.005266  -0.050135  -0.013278   0.000811   0.000007   0.000000
    10  C    0.000000   0.000003  -0.000024   0.000000   0.000000   0.000000
    11  H    0.000000  -0.000000   0.000000   0.000000   0.000000  -0.000000
    12  H   -0.000000   0.000000  -0.000000  -0.000000   0.000000   0.000000
    13  C    0.000002   0.000448   0.000037  -0.000045   0.000000  -0.000000
    14  C    0.000313  -0.008898   0.002241   0.000223  -0.000000  -0.000000
    15  H    0.000000   0.000000  -0.000000  -0.000000   0.000000   0.000000
    16  H   -0.000000   0.000002   0.000005   0.000000  -0.000000  -0.000000
    17  C   -0.017423  -0.031599  -0.024000   0.515761   0.000119   0.355941
    18  C    0.469922  -0.043265  -0.056140  -0.034504  -0.008096  -0.040075
    19  C    4.738727   0.467889  -0.027264  -0.036226  -0.040837   0.003606
    20  C    0.467889   4.954709   0.469517  -0.023542   0.005484   0.000721
    21  C   -0.027264   0.469517   4.999786   0.535215  -0.000176   0.004698
    22  C   -0.036226  -0.023542   0.535215   4.895382  -0.000019  -0.041697
    23  H   -0.040837   0.005484  -0.000176  -0.000019   0.594412  -0.000012
    24  H    0.003606   0.000721   0.004698  -0.041697  -0.000012   0.603315
    25  H   -0.044040   0.004428   0.000492   0.004545   0.006487  -0.005480
    26  C    0.456233  -0.047744   0.009538   0.000275   0.350716  -0.000199
    27  C   -0.024787   0.356883  -0.051331   0.005165   0.000025   0.000010
    28  H    0.004759  -0.044034   0.349874  -0.039177   0.000005  -0.000196
    29  H    0.000766   0.004057  -0.039841   0.357728  -0.000000  -0.004919
    30  C   -0.041672  -0.009698   0.000708  -0.000056   0.004353  -0.000000
    31  C   -0.019257  -0.045129   0.000972   0.000048  -0.041628   0.000003
    32  H    0.003756   0.000631   0.000017  -0.000000  -0.005605  -0.000000
    33  O   -0.000484  -0.003711  -0.025003  -0.001861   0.000000   0.000001
    34  H    0.000021   0.000323   0.001823   0.000220  -0.000000  -0.000000
    35  O    0.000378   0.001901  -0.000058   0.000000  -0.000064   0.000000
    36  H   -0.000066  -0.000127   0.000005  -0.000000  -0.000030  -0.000000
              25         26         27         28         29         30
     1  C    0.000000   0.000000   0.000811   0.000001  -0.000000   0.000223
     2  C    0.000000  -0.000024  -0.013291  -0.000013  -0.000000   0.002219
     3  C   -0.000000   0.000003  -0.050096  -0.000185  -0.000000  -0.008886
     4  C    0.000000   0.000000   0.005264  -0.000019   0.000000   0.000316
     5  C   -0.000000  -0.000000  -0.000136  -0.000001   0.000000   0.000006
     6  C   -0.000000   0.000000  -0.000018   0.000000  -0.000000  -0.000007
     7  H    0.000000  -0.000000   0.000006  -0.000000   0.000000   0.000017
     8  H    0.000000   0.000048   0.001035  -0.000006  -0.000000   0.014206
     9  C    0.000001  -0.000098   0.342347   0.001037   0.000006  -0.042909
    10  C   -0.000000   0.000000  -0.000097   0.000048  -0.000000  -0.000009
    11  H    0.000000  -0.000000   0.000001   0.000000   0.000000   0.000000
    12  H   -0.000000   0.000000   0.000000  -0.000000   0.000000  -0.000000
    13  C    0.000000  -0.000000   0.005900   0.000936  -0.000001  -0.000072
    14  C    0.000000  -0.000009  -0.042911   0.014130   0.000017   0.003445
    15  H    0.000000   0.000000   0.000007  -0.000001  -0.000000  -0.000000
    16  H   -0.000000   0.000000  -0.000075  -0.000014   0.000000   0.000001
    17  C   -0.044336   0.006270  -0.000080   0.004862  -0.045263   0.000013
    18  C    0.354507  -0.058317   0.006633   0.000761   0.004884   0.000442
    19  C   -0.044040   0.456233  -0.024787   0.004759   0.000766  -0.041672
    20  C    0.004428  -0.047744   0.356883  -0.044034   0.004057  -0.009698
    21  C    0.000492   0.009538  -0.051331   0.349874  -0.039841   0.000708
    22  C    0.004545   0.000275   0.005165  -0.039177   0.357728  -0.000056
    23  H    0.006487   0.350716   0.000025   0.000005  -0.000000   0.004353
    24  H   -0.005480  -0.000199   0.000010  -0.000196  -0.004919  -0.000000
    25  H    0.608732  -0.009127  -0.000129   0.000019  -0.000213   0.000001
    26  C   -0.009127   5.012807  -0.031717  -0.000193   0.000007  -0.021692
    27  C   -0.000129  -0.031717   5.138406  -0.009520  -0.000130   0.458536
    28  H    0.000019  -0.000193  -0.009520   0.595907  -0.006751  -0.000366
    29  H   -0.000213   0.000007  -0.000130  -0.006751   0.608740  -0.000000
    30  C    0.000001  -0.021692   0.458536  -0.000366  -0.000000   4.753196
    31  C    0.000333   0.512647  -0.040051   0.000026   0.000000   0.445002
    32  H   -0.000007  -0.027484   0.004632  -0.000000   0.000000  -0.049471
    33  O    0.000000  -0.000005   0.002840  -0.009920   0.000008   0.000149
    34  H   -0.000000   0.000000  -0.000464   0.001511   0.000016   0.000002
    35  O   -0.000000   0.005079  -0.061150  -0.000001  -0.000000   0.234527
    36  H    0.000000   0.001126   0.005551   0.000000   0.000000  -0.031160
              31         32         33         34         35         36
     1  C   -0.000045   0.000000   0.000000  -0.000000  -0.001858   0.000222
     2  C    0.000034   0.000006  -0.000058   0.000005  -0.024939   0.001827
     3  C    0.000450   0.000002   0.001903  -0.000127  -0.003768   0.000328
     4  C    0.000002  -0.000000   0.000378  -0.000066  -0.000494   0.000021
     5  C   -0.000000   0.000000   0.000000  -0.000001   0.000043  -0.000003
     6  C    0.000000  -0.000000  -0.000000   0.000000  -0.000049  -0.000001
     7  H   -0.000001   0.000000  -0.000000   0.000000   0.000009   0.000016
     8  H    0.000944  -0.000014  -0.000001   0.000000  -0.010029   0.001505
     9  C    0.005902  -0.000075  -0.061169   0.005538   0.002868  -0.000464
    10  C   -0.000000   0.000000   0.005077   0.001129  -0.000005   0.000000
    11  H    0.000000  -0.000000  -0.000000   0.000000   0.000000  -0.000000
    12  H   -0.000000  -0.000000   0.000000  -0.000000   0.000001  -0.000000
    13  C    0.000001  -0.000000  -0.044182  -0.002548  -0.000001  -0.000000
    14  C   -0.000073   0.000001   0.234589  -0.031204   0.000149   0.000002
    15  H    0.000000  -0.000000  -0.000064  -0.000030   0.000000  -0.000000
    16  H   -0.000000   0.000000  -0.007156   0.010840  -0.000000   0.000000
    17  C   -0.000346   0.000004  -0.000048  -0.000001  -0.000000   0.000000
    18  C    0.006650  -0.000216   0.000042  -0.000003   0.000000  -0.000001
    19  C   -0.019257   0.003756  -0.000484   0.000021   0.000378  -0.000066
    20  C   -0.045129   0.000631  -0.003711   0.000323   0.001901  -0.000127
    21  C    0.000972   0.000017  -0.025003   0.001823  -0.000058   0.000005
    22  C    0.000048  -0.000000  -0.001861   0.000220   0.000000  -0.000000
    23  H   -0.041628  -0.005605   0.000000  -0.000000  -0.000064  -0.000030
    24  H    0.000003  -0.000000   0.000001  -0.000000   0.000000  -0.000000
    25  H    0.000333  -0.000007   0.000000  -0.000000  -0.000000   0.000000
    26  C    0.512647  -0.027484  -0.000005   0.000000   0.005079   0.001126
    27  C   -0.040051   0.004632   0.002840  -0.000464  -0.061150   0.005551
    28  H    0.000026  -0.000000  -0.009920   0.001511  -0.000001   0.000000
    29  H    0.000000   0.000000   0.000008   0.000016  -0.000000   0.000000
    30  C    0.445002  -0.049471   0.000149   0.000002   0.234527  -0.031160
    31  C    5.094636   0.342340  -0.000001  -0.000000  -0.044206  -0.002565
    32  H    0.342340   0.607629  -0.000000   0.000000  -0.007158   0.010849
    33  O   -0.000001  -0.000000   8.289452   0.235532  -0.000000  -0.000000
    34  H   -0.000000   0.000000   0.235532   0.372419  -0.000000   0.000000
    35  O   -0.044206  -0.007158  -0.000000  -0.000000   8.289465   0.235492
    36  H   -0.002565   0.010849  -0.000000   0.000000   0.235492   0.372423
 Mulliken charges:
               1
     1  C   -0.138225
     2  C   -0.137965
     3  C    0.039653
     4  C    0.100469
     5  C   -0.183315
     6  C   -0.135759
     7  H    0.120859
     8  H    0.136421
     9  C   -0.008011
    10  C   -0.158105
    11  H    0.123781
    12  H    0.124281
    13  C   -0.216737
    14  C    0.288771
    15  H    0.134857
    16  H    0.120182
    17  C   -0.135764
    18  C   -0.183325
    19  C    0.100523
    20  C    0.039695
    21  C   -0.137953
    22  C   -0.138250
    23  H    0.134862
    24  H    0.124284
    25  H    0.123785
    26  C   -0.158140
    27  C   -0.008068
    28  H    0.136519
    29  H    0.120888
    30  C    0.288640
    31  C   -0.216690
    32  H    0.120165
    33  O   -0.616309
    34  H    0.405066
    35  O   -0.616134
    36  H    0.405051
 Sum of Mulliken charges =  -0.00000
 Mulliken charges with hydrogens summed into heavy atoms:
               1
     1  C   -0.017366
     2  C   -0.001544
     3  C    0.039653
     4  C    0.100469
     5  C   -0.059534
     6  C   -0.011478
     9  C   -0.008011
    10  C   -0.023249
    13  C   -0.096555
    14  C    0.288771
    17  C   -0.011480
    18  C   -0.059540
    19  C    0.100523
    20  C    0.039695
    21  C   -0.001434
    22  C   -0.017363
    26  C   -0.023278
    27  C   -0.008068
    30  C    0.288640
    31  C   -0.096525
    33  O   -0.211244
    35  O   -0.211084
 Electronic spatial extent (au):  <R**2>=           6170.0786
 Charge=             -0.0000 electrons
 Dipole moment (field-independent basis, Debye):
    X=              0.0018    Y=             -0.0017    Z=              0.7017  Tot=              0.7017
 Quadrupole moment (field-independent basis, Debye-Ang):
   XX=           -116.3213   YY=            -97.3442   ZZ=           -129.9535
   XY=              5.7357   XZ=             -0.0040   YZ=             -0.0107
 Traceless Quadrupole moment (field-independent basis, Debye-Ang):
   XX=             -1.7816   YY=             17.1954   ZZ=            -15.4138
   XY=              5.7357   XZ=             -0.0040   YZ=             -0.0107
 Octapole moment (field-independent basis, Debye-Ang**2):
  XXX=              0.0020  YYY=              0.0237  ZZZ=             -4.6447  XYY=              0.0418
  XXY=             -0.0028  XXZ=              7.6295  XZZ=              0.0028  YZZ=              0.0200
  YYZ=            -11.3249  XYZ=            -18.6133
 Hexadecapole moment (field-independent basis, Debye-Ang**3):
 XXXX=          -5338.8275 YYYY=          -1753.9669 ZZZZ=           -429.8135 XXXY=             41.5309
 XXXZ=             -0.1448 YYYX=             22.7292 YYYZ=             -0.1033 ZZZX=             -0.0018
 ZZZY=             -0.0310 XXYY=          -1256.7334 XXZZ=          -1097.5794 YYZZ=           -429.3178
 XXYZ=             -0.0087 YYXZ=             -0.0357 ZZXY=            -30.7400
 N-N= 1.673482391121D+03 E-N=-5.486921996892D+03  KE= 9.122012797677D+02
 Unable to Open any file for archive entry.
 1\1\GINC-CCC175\SP\RB3LYP TD-FC\6-31G(d)\C20H14O2\ROOT\20-Feb-2025\0\\
 # td=(nstat=16) b3lyp/6-31g(d)\\binol | No.12\\0,1\C,0,-3.277754,-1.74
 5491,-1.102845\C,0,-2.047525,-1.244274,-0.719875\C,0,-1.904397,-0.0774
 04,0.077787\C,0,-3.110788,0.695286,0.184288\C,0,-4.376187,0.134799,-0.
 128193\C,0,-4.471377,-1.099232,-0.729988\H,0,-3.315814,-2.636109,-1.72
 5131\H,0,-1.167441,-1.730216,-1.108514\C,0,-0.605111,0.454911,0.606447
 \C,0,-3.002287,2.099276,0.356649\H,0,-5.262668,0.742033,0.04099\H,0,-5
 .437808,-1.520189,-0.993114\C,0,-1.760922,2.654323,0.336367\C,0,-0.582
 062,1.849722,0.406943\H,0,-3.896919,2.7148,0.40071\H,0,-1.63669,3.7358
 9,0.359413\C,0,4.472528,1.097715,-0.729536\C,0,4.376515,-0.13654,-0.12
 8339\C,0,3.110751,-0.69618,0.184227\C,0,1.904935,0.077539,0.07825\C,0,
 2.048787,1.244661,-0.718951\C,0,3.279322,1.74511,-1.101857\H,0,3.89536
 8,-2.716309,0.399955\H,0,5.439235,1.518084,-0.992587\H,0,5.262567,-0.7
 44518,0.040423\C,0,3.001198,-2.100074,0.356426\C,0,0.605513,-0.453802,
 0.606809\H,0,1.168986,1.731562,-1.107\H,0,3.317977,2.636052,-1.723638\
 C,0,0.581255,-1.84867,0.407908\C,0,1.759388,-2.654196,0.336834\H,0,1.6
 34358,-3.735667,0.360082\O,0,0.537712,2.557891,0.800863\H,0,0.307258,3
 .496529,0.871205\O,0,-0.538858,-2.555638,0.802906\H,0,-0.309933,-3.494
 823,0.870945\\Version=ES64L-G16RevC.02\State=1-A\HF=-920.9140336\RMSD=
 6.321e-09\PG=C01 [X(C20H14O2)]\\@
 The archive entry for this job was punched.


 WE ARE REACHING THE STAGE WHERE THE PROBLEMS WE MUST SOLVE ARE 
 GOING TO BECOME INSOLUBLE WITHOUT COMPUTERS.
 I DO NOT FEAR COMPUTERS.  I FEAR THE LACK OF THEM.

                                   -- ISSAC ASIMOV
 Job cpu time:       0 days  1 hours  2 minutes 16.4 seconds.
 Elapsed time:       0 days  0 hours  8 minutes  4.5 seconds.
 File lengths (MBytes):  RWF=   1295 Int=      0 D2E=      0 Chk=     78 Scr=      1
 Normal termination of Gaussian 16 at Thu Feb 20 09:35:11 2025.
