 Entering Gaussian System, Link 0=/apl/gaussian/16c02/g16/._.g16
 Initial command:
 /apl/gaussian/16c02/g16/l1.exe "/lwork/users/ux8/8279368.ccpbs1/gaussian/Gau-372922.inp" -scrdir="/lwork/users/ux8/8279368.ccpbs1/gaussian/"
 Default CPUs for threads: 120,121,122,123,124,125,126,127
 Default is to use a total of   8 processors:
                                8 via shared-memory
                                1 via Linda
 Entering Link 1 = /apl/gaussian/16c02/g16/l1.exe PID=    372931.
  
 Copyright (c) 1988-2021, Gaussian, Inc.  All Rights Reserved.
  
 This is part of the Gaussian(R) 16 program.  It is based on
 the Gaussian(R) 09 system (copyright 2009, Gaussian, Inc.),
 the Gaussian(R) 03 system (copyright 2003, Gaussian, Inc.),
 the Gaussian(R) 98 system (copyright 1998, Gaussian, Inc.),
 the Gaussian(R) 94 system (copyright 1995, Gaussian, Inc.),
 the Gaussian 92(TM) system (copyright 1992, Gaussian, Inc.),
 the Gaussian 90(TM) system (copyright 1990, Gaussian, Inc.),
 the Gaussian 88(TM) system (copyright 1988, Gaussian, Inc.),
 the Gaussian 86(TM) system (copyright 1986, Carnegie Mellon
 University), and the Gaussian 82(TM) system (copyright 1983,
 Carnegie Mellon University). Gaussian is a federally registered
 trademark of Gaussian, Inc.
  
 This software contains proprietary and confidential information,
 including trade secrets, belonging to Gaussian, Inc.
  
 This software is provided under written license and may be
 used, copied, transmitted, or stored only in accord with that
 written license.
  
 The following legend is applicable only to US Government
 contracts under FAR:
  
                    RESTRICTED RIGHTS LEGEND
  
 Use, reproduction and disclosure by the US Government is
 subject to restrictions as set forth in subparagraphs (a)
 and (c) of the Commercial Computer Software - Restricted
 Rights clause in FAR 52.227-19.
  
 Gaussian, Inc.
 340 Quinnipiac St., Bldg. 40, Wallingford CT 06492
  
  
 ---------------------------------------------------------------
 Warning -- This program may not be used in any manner that
 competes with the business of Gaussian, Inc. or will provide
 assistance to any competitor of Gaussian, Inc.  The licensee
 of this program is prohibited from giving any competitor of
 Gaussian, Inc. access to this program.  By using this program,
 the user acknowledges that Gaussian, Inc. is engaged in the
 business of creating and licensing software in the field of
 computational chemistry and represents and warrants to the
 licensee that it is not a competitor of Gaussian, Inc. and that
 it will not use this program in any manner prohibited above.
 ---------------------------------------------------------------
  

 Cite this work as:
 Gaussian 16, Revision C.02,
 M. J. Frisch, G. W. Trucks, H. B. Schlegel, G. E. Scuseria, 
 M. A. Robb, J. R. Cheeseman, G. Scalmani, V. Barone, 
 G. A. Petersson, H. Nakatsuji, X. Li, M. Caricato, A. V. Marenich, 
 J. Bloino, B. G. Janesko, R. Gomperts, B. Mennucci, H. P. Hratchian, 
 J. V. Ortiz, A. F. Izmaylov, J. L. Sonnenberg, D. Williams-Young, 
 F. Ding, F. Lipparini, F. Egidi, J. Goings, B. Peng, A. Petrone, 
 T. Henderson, D. Ranasinghe, V. G. Zakrzewski, J. Gao, N. Rega, 
 G. Zheng, W. Liang, M. Hada, M. Ehara, K. Toyota, R. Fukuda, 
 J. Hasegawa, M. Ishida, T. Nakajima, Y. Honda, O. Kitao, H. Nakai, 
 T. Vreven, K. Throssell, J. A. Montgomery, Jr., J. E. Peralta, 
 F. Ogliaro, M. J. Bearpark, J. J. Heyd, E. N. Brothers, K. N. Kudin, 
 V. N. Staroverov, T. A. Keith, R. Kobayashi, J. Normand, 
 K. Raghavachari, A. P. Rendell, J. C. Burant, S. S. Iyengar, 
 J. Tomasi, M. Cossi, J. M. Millam, M. Klene, C. Adamo, R. Cammi, 
 J. W. Ochterski, R. L. Martin, K. Morokuma, O. Farkas, 
 J. B. Foresman, and D. J. Fox, Gaussian, Inc., Wallingford CT, 2019.
 
 ******************************************
 Gaussian 16:  ES64L-G16RevC.02  7-Dec-2021
                20-Feb-2025 
 ******************************************
 %chk=binol.014.tddft.chk
 %mem=9600MB
 SetSPE:  set environment variable "OMP_PROC_BIND" = "true"
 SetSPE:  set environment variable "OMP_PLACES" = "{120},{121},{122},{123},{124},{125},{126},{127}"
 ------------------------------
 # td=(nstat=16) b3lyp/6-31g(d)
 ------------------------------
 1/38=1,172=1/1;
 2/12=2,17=6,18=5,40=1/2;
 3/5=1,6=6,7=1,11=9,25=1,30=1,74=-5/1,2,3,8;
 4//1;
 5/5=2,38=5/2;
 8/6=1,10=2,108=16/1;
 9/41=16,42=1,70=2/14;
 6/7=2,8=2,9=2,10=2/1;
 99/5=1,9=1/99;
 -------------
 binol | No.14
 -------------
 Symbolic Z-matrix:
 Charge =  0 Multiplicity = 1
 C                    -2.95647  -1.88672   1.41283 
 C                    -1.8253   -1.41028   0.78844 
 C                    -1.81744  -0.16146   0.10416 
 C                    -3.02654   0.61297   0.15833 
 C                    -4.18478   0.08391   0.7885 
 C                    -4.16178  -1.14786   1.3976 
 H                    -2.91807  -2.84089   1.93236 
 H                    -0.9124   -1.98829   0.84191 
 C                    -0.65418   0.36284  -0.57393 
 C                    -3.03232   1.92835  -0.36936 
 H                    -5.08938   0.68809   0.79485 
 H                    -5.05049  -1.54142   1.88321 
 C                    -1.89279   2.46375  -0.90932 
 C                    -0.70691   1.69321  -0.98801 
 H                    -3.94672   2.51453  -0.32318 
 H                    -1.88834   3.48154  -1.29673 
 C                     4.16168   1.14818   1.39739 
 C                     4.18479  -0.08366   0.7884 
 C                     3.0265   -0.61295   0.15848 
 C                     1.81735   0.16138   0.10441 
 C                     1.82506   1.41018   0.78869 
 C                     2.95625   1.88684   1.41286 
 H                     3.94681  -2.51451  -0.32278 
 H                     5.05044   1.54195   1.88276 
 H                     5.08949  -0.68769   0.79466 
 C                     3.03237  -1.92839  -0.36908 
 C                     0.65421  -0.36298  -0.57377 
 H                     0.91197   1.98792   0.8424 
 H                     2.91778   2.841     1.9324 
 C                     0.70708  -1.6933   -0.98789 
 C                     1.89288  -2.46386  -0.90902 
 H                     1.88838  -3.48174  -1.29621 
 O                     0.39656   2.22471  -1.60318 
 H                     0.19935   3.13651  -1.86644 
 O                    -0.39631  -2.22489  -1.60314 
 H                    -0.19876  -3.13648  -1.8669 
 
                          Input orientation:                          
 ---------------------------------------------------------------------
 Center     Atomic      Atomic             Coordinates (Angstroms)
 Number     Number       Type             X           Y           Z
 ---------------------------------------------------------------------
      1          6           0       -2.956474   -1.886717    1.412829
      2          6           0       -1.825303   -1.410276    0.788439
      3          6           0       -1.817436   -0.161464    0.104159
      4          6           0       -3.026537    0.612973    0.158331
      5          6           0       -4.184778    0.083910    0.788497
      6          6           0       -4.161775   -1.147864    1.397598
      7          1           0       -2.918073   -2.840885    1.932359
      8          1           0       -0.912402   -1.988285    0.841905
      9          6           0       -0.654182    0.362841   -0.573934
     10          6           0       -3.032317    1.928349   -0.369357
     11          1           0       -5.089381    0.688088    0.794849
     12          1           0       -5.050492   -1.541423    1.883211
     13          6           0       -1.892790    2.463751   -0.909324
     14          6           0       -0.706913    1.693209   -0.988007
     15          1           0       -3.946719    2.514529   -0.323177
     16          1           0       -1.888340    3.481541   -1.296730
     17          6           0        4.161680    1.148179    1.397393
     18          6           0        4.184786   -0.083659    0.788404
     19          6           0        3.026504   -0.612950    0.158479
     20          6           0        1.817351    0.161383    0.104414
     21          6           0        1.825057    1.410184    0.788694
     22          6           0        2.956251    1.886838    1.412863
     23          1           0        3.946805   -2.514506   -0.322781
     24          1           0        5.050439    1.541953    1.882755
     25          1           0        5.089487   -0.687686    0.794655
     26          6           0        3.032372   -1.928388   -0.369080
     27          6           0        0.654211   -0.362982   -0.573772
     28          1           0        0.911968    1.987918    0.842395
     29          1           0        2.917776    2.840999    1.932402
     30          6           0        0.707082   -1.693300   -0.987891
     31          6           0        1.892883   -2.463861   -0.909020
     32          1           0        1.888376   -3.481738   -1.296205
     33          8           0        0.396557    2.224709   -1.603181
     34          1           0        0.199346    3.136513   -1.866441
     35          8           0       -0.396314   -2.224893   -1.603144
     36          1           0       -0.198761   -3.136485   -1.866896
 ---------------------------------------------------------------------
                    Distance matrix (angstroms):
                    1          2          3          4          5
     1  C    0.000000
     2  C    1.377101   0.000000
     3  C    2.446737   1.424020   0.000000
     4  C    2.797700   2.435885   1.436876   0.000000
     5  C    2.404556   2.792797   2.476456   1.420753   0.000000
     6  C    1.413820   2.428793   2.853401   2.434152   1.374336
     7  H    1.087117   2.132919   3.425349   3.884337   3.386353
     8  H    2.124735   1.081823   2.168094   3.421021   3.873666
     9  C    3.782630   2.524189   1.444945   2.495365   3.794618
    10  C    4.211492   3.734139   2.463224   1.417287   2.463889
    11  H    3.400119   3.880384   3.450278   2.160121   1.087832
    12  H    2.173798   3.408456   3.939792   3.422430   2.142327
    13  C    5.044838   4.230253   2.815063   2.418811   3.714761
    14  C    4.862140   3.746755   2.421962   2.803864   4.223903
    15  H    4.833763   4.597846   3.446360   2.166680   2.683356
    16  H    6.107439   5.318061   3.903717   3.411946   4.600619
    17  C    7.738149   6.539150   6.255993   7.313835   8.436041
    18  C    7.391787   6.154761   6.041599   7.272240   8.371241
    19  C    6.244350   4.957077   4.865238   6.175937   7.272216
    20  C    5.356871   4.025783   3.649097   4.865192   6.041484
    21  C    5.841416   4.613038   4.025720   4.956901   6.154439
    22  C    7.014274   5.841586   5.356896   6.244224   7.391527
    23  H    7.145749   5.980917   6.240638   7.657682   8.608679
    24  H    8.722801   7.562342   7.296077   8.311088   9.413422
    25  H    8.158266   6.952445   6.961270   8.244178   9.306309
    26  C    6.248457   5.020488   5.183301   6.591438   7.581331
    27  C    4.393791   3.016692   2.570844   3.877676   5.046910
    28  H    5.504819   4.363861   3.551687   4.227321   5.441045
    29  H    7.558311   6.471382   5.897414   6.591380   7.704306
    30  C    4.384348   3.106191   3.148378   4.535706   5.499484
    31  C    5.407434   4.220938   4.482637   5.899732   6.805194
    32  H    5.775425   4.735832   5.168973   6.560389   7.344592
    33  O    6.102701   4.885655   3.675676   4.173511   5.593905
    34  H    6.778322   5.641000   4.339047   4.568838   5.965536
    35  O    3.970501   2.902633   3.031866   4.251394   5.040137
    36  H    4.463574   3.560371   3.918663   5.114323   5.771515
                    6          7          8          9         10
     6  C    0.000000
     7  H    2.167737   0.000000
     8  H    3.401989   2.436952   0.000000
     9  C    4.297950   4.655166   2.756641   0.000000
    10  C    3.723022   5.296843   4.615324   2.854504   0.000000
    11  H    2.143474   4.296761   4.961083   4.652993   2.669295
    12  H    1.086520   2.497644   4.290430   5.384359   4.602870
    13  C    4.849118   6.104550   4.883502   2.461800   1.369942
    14  C    5.069406   5.828874   4.116334   1.394316   2.417752
    15  H    4.052214   5.901357   5.553362   3.941249   1.087139
    16  H    5.818875   7.173593   5.953588   3.431016   2.140353
    17  C    8.634334   8.143815   5.991017   5.262643   7.448736
    18  C    8.436156   7.704644   5.441671   5.046874   7.581238
    19  C    7.313884   6.591536   4.227718   3.877634   6.591367
    20  C    6.255909   5.897392   3.551974   2.570840   5.183233
    21  C    6.538848   6.471232   4.364184   3.016672   5.020325
    22  C    7.737955   7.558368   5.505365   4.393763   6.248278
    23  H    8.400981   7.233169   5.024470   5.432429   8.273408
    24  H    9.609130   9.094444   7.007241   6.322051   8.399539
    25  H    9.282303   8.369687   6.141373   5.997197   8.611751
    26  C    7.448901   6.444926   4.126901   4.345386   7.187132
    27  C    5.262705   5.018158   2.664588   1.496232   4.345397
    28  H    5.990346   6.258959   4.374759   2.664524   4.126654
    29  H    8.143530   8.144995   6.259507   5.018154   6.444737
    30  C    5.449204   4.794430   2.461280   2.500423   5.242331
    31  C    6.611446   5.600079   3.340888   3.819695   6.621204
    32  H    7.021956   5.825485   3.827045   4.665519   7.371656
    33  O    6.415397   7.010496   5.043921   2.372752   3.656136
    34  H    6.930311   7.738118   5.902091   3.176844   3.760926
    35  O    4.933877   4.386171   2.510099   2.796808   5.071505
    36  H    5.506089   4.681493   3.027416   3.758250   5.993681
                   11         12         13         14         15
    11  H    0.000000
    12  H    2.481283   0.000000
    13  C    4.034275   5.814701   0.000000
    14  C    4.836824   6.129716   1.416415   0.000000
    15  H    2.427251   4.747337   2.136532   3.407772   0.000000
    16  H    4.735477   6.733602   1.089036   2.165459   2.473831
    17  C    9.282073   9.609063   6.611224   5.448889   8.400798
    18  C    9.306224   9.413503   6.805035   5.499238   8.608575
    19  C    8.244104   8.311115   5.899639   4.535549   7.657608
    20  C    6.961111   7.295953   4.482601   3.148298   6.240564
    21  C    6.952044   7.561952   4.220859   3.106065   5.980739
    22  C    8.157888   8.722507   5.407271   4.384112   7.145546
    23  H    9.651858   9.314754   7.695969   6.309079   9.359429
    24  H   10.233698  10.561061   7.540149   6.435158   9.314553
    25  H   10.271422  10.233914   7.847757   6.514967   9.651774
    26  C    8.611826   8.399717   6.621176   5.242260   8.273411
    27  C    5.997226   6.322114   3.819716   2.500434   5.432442
    28  H    6.140685   7.006460   3.340899   2.461301   5.024213
    29  H    8.369206   9.094028   5.599935   4.794224   7.232946
    30  C    6.515225   6.435523   4.903731   3.669854   6.309163
    31  C    7.847927   7.540418   6.213910   4.903714   7.696007
    32  H    8.393393   7.875367   7.056609   5.797464   8.423202
    33  O    6.181203   7.483918   2.404098   1.370612   4.537230
    34  H    6.406862   7.968926   2.397022   1.917310   4.467481
    35  O    6.021686   5.855184   4.970333   3.978239   6.058532
    36  H    6.755028   6.336152   5.928686   4.935241   6.954439
                   16         17         18         19         20
    16  H    0.000000
    17  C    7.021796   0.000000
    18  C    7.344474   1.374346   0.000000
    19  C    6.560349   2.434154   1.420764   0.000000
    20  C    5.169023   2.853321   2.476416   1.436860   0.000000
    21  C    4.735909   2.428779   2.792828   2.435922   1.424009
    22  C    5.775382   1.413830   2.404601   2.797741   2.446697
    23  H    8.423187   4.052213   2.683353   2.166675   3.446368
    24  H    7.875137   1.086520   2.142329   3.422433   3.939712
    25  H    8.393236   2.143483   1.087829   2.160140   3.450250
    26  C    7.371653   3.723040   2.463910   1.417297   2.463253
    27  C    4.665575   4.297841   3.794536   2.495285   1.444919
    28  H    3.827335   3.402031   3.873717   3.421040   2.168079
    29  H    5.825490   2.167757   3.386395   3.884377   3.425320
    30  C    5.797463   5.069303   4.223813   2.803754   2.421916
    31  C    7.056612   4.849104   3.714758   2.418785   2.815077
    32  H    7.921543   5.818893   4.600656   3.411947   3.903730
    33  O    2.625699   4.933408   5.039734   4.251162   3.031806
    34  H    2.191358   5.505104   5.770740   5.113863   3.918368
    35  O    5.906219   6.415306   5.593824   4.173411   3.675647
    36  H    6.854052   6.930178   5.965388   4.568666   4.338975
                   21         22         23         24         25
    21  C    0.000000
    22  C    1.377093   0.000000
    23  H    4.597867   4.833786   0.000000
    24  H    3.408434   2.173791   4.747342   0.000000
    25  H    3.880412   3.400155   2.427274   2.481285   0.000000
    26  C    3.734182   4.211539   1.087136   4.602893   2.669334
    27  C    2.524146   3.782565   3.941222   5.384248   4.652924
    28  H    1.081847   2.124793   5.553350   4.290475   4.961129
    29  H    2.132917   1.087117   5.901371   2.497646   4.296791
    30  C    3.746697   4.862075   3.407720   6.129618   4.836755
    31  C    4.230255   5.044846   2.136548   5.814698   4.034301
    32  H    5.318055   6.107456   2.473908   6.733639   4.735561
    33  O    2.902607   3.970228   6.058370   5.854616   6.021234
    34  H    3.559900   4.462740   6.954161   6.334998   6.754214
    35  O    4.885608   6.102649   4.537167   7.483832   6.181137
    36  H    5.640939   6.778252   4.467311   7.968799   6.406718
                   26         27         28         29         30
    26  C    0.000000
    27  C    2.854478   0.000000
    28  H    4.615326   2.756574   0.000000
    29  H    5.296886   4.655119   2.437033   0.000000
    30  C    2.417678   1.394287   4.116223   5.828820   0.000000
    31  C    1.369928   2.461786   4.883440   6.104558   1.416372
    32  H    2.140370   3.430993   5.953496   7.173602   2.165415
    33  O    5.071365   2.796822   2.510490   4.385967   3.978166
    34  H    5.993442   3.758239   3.027357   4.680641   4.935255
    35  O    3.656052   2.372746   5.043812   7.010459   1.370624
    36  H    3.760741   3.176799   5.901990   7.738074   1.917286
                   31         32         33         34         35
    31  C    0.000000
    32  H    1.089039   0.000000
    33  O    4.970266   5.906208   0.000000
    34  H    5.928652   6.854140   0.969322   0.000000
    35  O    2.404025   2.625582   4.519691   5.400816   0.000000
    36  H    2.396857   2.191125   5.400588   6.285618   0.969326
                   36
    36  H    0.000000
 Stoichiometry    C20H14O2
 Framework group  C1[X(C20H14O2)]
 Deg. of freedom   102
 Full point group                 C1      NOp   1
 Largest Abelian subgroup         C1      NOp   1
 Largest concise Abelian subgroup C1      NOp   1
                         Standard orientation:                         
 ---------------------------------------------------------------------
 Center     Atomic      Atomic             Coordinates (Angstroms)
 Number     Number       Type             X           Y           Z
 ---------------------------------------------------------------------
      1          6           0        2.956474    1.886717    1.412829
      2          6           0        1.825303    1.410276    0.788439
      3          6           0        1.817436    0.161464    0.104159
      4          6           0        3.026537   -0.612973    0.158331
      5          6           0        4.184778   -0.083910    0.788497
      6          6           0        4.161775    1.147864    1.397598
      7          1           0        2.918073    2.840885    1.932359
      8          1           0        0.912402    1.988285    0.841905
      9          6           0        0.654182   -0.362841   -0.573934
     10          6           0        3.032317   -1.928349   -0.369357
     11          1           0        5.089381   -0.688088    0.794849
     12          1           0        5.050492    1.541423    1.883211
     13          6           0        1.892790   -2.463751   -0.909324
     14          6           0        0.706913   -1.693209   -0.988007
     15          1           0        3.946719   -2.514529   -0.323177
     16          1           0        1.888340   -3.481541   -1.296730
     17          6           0       -4.161680   -1.148179    1.397393
     18          6           0       -4.184786    0.083659    0.788404
     19          6           0       -3.026504    0.612950    0.158479
     20          6           0       -1.817351   -0.161383    0.104414
     21          6           0       -1.825057   -1.410184    0.788694
     22          6           0       -2.956251   -1.886838    1.412863
     23          1           0       -3.946805    2.514506   -0.322781
     24          1           0       -5.050439   -1.541953    1.882755
     25          1           0       -5.089487    0.687686    0.794655
     26          6           0       -3.032372    1.928388   -0.369080
     27          6           0       -0.654211    0.362982   -0.573772
     28          1           0       -0.911968   -1.987918    0.842395
     29          1           0       -2.917776   -2.840999    1.932402
     30          6           0       -0.707082    1.693300   -0.987891
     31          6           0       -1.892883    2.463861   -0.909020
     32          1           0       -1.888376    3.481738   -1.296205
     33          8           0       -0.396557   -2.224709   -1.603181
     34          1           0       -0.199346   -3.136513   -1.866441
     35          8           0        0.396314    2.224893   -1.603144
     36          1           0        0.198761    3.136485   -1.866896
 ---------------------------------------------------------------------
 Rotational constants (GHZ):           0.4969679           0.2286800           0.1909444
 Standard basis: 6-31G(d) (6D, 7F)
 There are   358 symmetry adapted cartesian basis functions of A   symmetry.
 There are   358 symmetry adapted basis functions of A   symmetry.
   358 basis functions,   672 primitive gaussians,   358 cartesian basis functions
    75 alpha electrons       75 beta electrons
       nuclear repulsion energy      1675.6553507249 Hartrees.
 NAtoms=   36 NActive=   36 NUniq=   36 SFac= 1.00D+00 NAtFMM=   60 NAOKFM=F Big=F
 Integral buffers will be    131072 words long.
 Regular integral format.
 Two-electron integral symmetry is turned on.
 One-electron integrals computed using PRISM.
 NBasis=   358 RedAO= T EigKep=  2.52D-04  NBF=   358
 NBsUse=   358 1.00D-06 EigRej= -1.00D+00 NBFU=   358
 ExpMin= 1.61D-01 ExpMax= 5.48D+03 ExpMxC= 8.25D+02 IAcc=3 IRadAn=         5 AccDes= 0.00D+00
 Harris functional with IExCor=  402 and IRadAn=       5 diagonalized for initial guess.
 HarFok:  IExCor=  402 AccDes= 0.00D+00 IRadAn=         5 IDoV= 1 UseB2=F ITyADJ=14
 ICtDFT=  3500011 ScaDFX=  1.000000  1.000000  1.000000  1.000000
 FoFCou: FMM=F IPFlag=           0 FMFlag=      100000 FMFlg1=           0
         NFxFlg=           0 DoJE=T BraDBF=F KetDBF=T FulRan=T
         wScrn=  0.000000 ICntrl=       500 IOpCl=  0 I1Cent=   200000004 NGrid=           0
         NMat0=    1 NMatS0=      1 NMatT0=    0 NMatD0=    1 NMtDS0=    0 NMtDT0=    0
 Petite list used in FoFCou.
 Requested convergence on RMS density matrix=1.00D-08 within 128 cycles.
 Requested convergence on MAX density matrix=1.00D-06.
 Requested convergence on             energy=1.00D-06.
 No special actions if energy rises.
 Integral accuracy reduced to 1.0D-05 until final iterations.
 Initial convergence to 1.0D-05 achieved.  Increase integral accuracy.
 SCF Done:  E(RB3LYP) =  -921.005315171     A.U. after   14 cycles
            NFock= 14  Conv=0.69D-08     -V/T= 2.0095
 DoSCS=F DFT=T ScalE2(SS,OS)=  1.000000  1.000000
 ExpMin= 1.61D-01 ExpMax= 5.48D+03 ExpMxC= 8.25D+02 IAcc=3 IRadAn=         5 AccDes= 0.00D+00
 HarFok:  IExCor=  205 AccDes= 0.00D+00 IRadAn=         5 IDoV=-2 UseB2=F ITyADJ=14
 ICtDFT= 12500011 ScaDFX=  1.000000  1.000000  1.000000  1.000000
 GSVD:  LWork=        -660 too small for GESVD, short by        2750 words or        2750 for optimal perf.
 Range of M.O.s used for correlation:    23   358
 NBasis=   358 NAE=    75 NBE=    75 NFC=    22 NFV=     0
 NROrb=    336 NOA=    53 NOB=    53 NVA=   283 NVB=   283
 Orbital symmetries:
       Occupied  (A) (A) (A) (A) (A) (A) (A) (A) (A) (A) (A) (A)
                 (A) (A) (A) (A) (A) (A) (A) (A) (A) (A) (A) (A)
                 (A) (A) (A) (A) (A) (A) (A) (A) (A) (A) (A) (A)
                 (A) (A) (A) (A) (A) (A) (A) (A) (A) (A) (A) (A)
                 (A) (A) (A) (A) (A) (A) (A) (A) (A) (A) (A) (A)
                 (A) (A) (A) (A) (A) (A) (A) (A) (A) (A) (A) (A)
                 (A) (A) (A)
       Virtual   (A) (A) (A) (A) (A) (A) (A) (A) (A) (A) (A) (A)
                 (A) (A) (A) (A) (A) (A) (A) (A) (A) (A) (A) (A)
                 (A) (A) (A) (A) (A) (A) (A) (A) (A) (A) (A) (A)
                 (A) (A) (A) (A) (A) (A) (A) (A) (A) (A) (A) (A)
                 (A) (A) (A) (A) (A) (A) (A) (A) (A) (A) (A) (A)
                 (A) (A) (A) (A) (A) (A) (A) (A) (A) (A) (A) (A)
                 (A) (A) (A) (A) (A) (A) (A) (A) (A) (A) (A) (A)
                 (A) (A) (A) (A) (A) (A) (A) (A) (A) (A) (A) (A)
                 (A) (A) (A) (A) (A) (A) (A) (A) (A) (A) (A) (A)
                 (A) (A) (A) (A) (A) (A) (A) (A) (A) (A) (A) (A)
                 (A) (A) (A) (A) (A) (A) (A) (A) (A) (A) (A) (A)
                 (A) (A) (A) (A) (A) (A) (A) (A) (A) (A) (A) (A)
                 (A) (A) (A) (A) (A) (A) (A) (A) (A) (A) (A) (A)
                 (A) (A) (A) (A) (A) (A) (A) (A) (A) (A) (A) (A)
                 (A) (A) (A) (A) (A) (A) (A) (A) (A) (A) (A) (A)
                 (A) (A) (A) (A) (A) (A) (A) (A) (A) (A) (A) (A)
                 (A) (A) (A) (A) (A) (A) (A) (A) (A) (A) (A) (A)
                 (A) (A) (A) (A) (A) (A) (A) (A) (A) (A) (A) (A)
                 (A) (A) (A) (A) (A) (A) (A) (A) (A) (A) (A) (A)
                 (A) (A) (A) (A) (A) (A) (A) (A) (A) (A) (A) (A)
                 (A) (A) (A) (A) (A) (A) (A) (A) (A) (A) (A) (A)
                 (A) (A) (A) (A) (A) (A) (A) (A) (A) (A) (A) (A)
                 (A) (A) (A) (A) (A) (A) (A) (A) (A) (A) (A) (A)
                 (A) (A) (A) (A) (A) (A) (A)
    64 initial guesses have been made.
 Convergence on wavefunction:    0.001000000000000
 Iteration     1 Dimension    64 NMult     0 NNew     64
 CISAX will form    64 AO SS matrices at one time.
 New state      3 was old state      6
 New state      6 was old state      3
 New state      7 was old state      8
 New state      8 was old state      7
 New state      9 was old state     11
 New state     10 was old state     13
 New state     11 was old state     10
 New state     12 was old state     14
 New state     13 was old state     19
 New state     14 was old state     16
 New state     16 was old state     20
 Iteration     2 Dimension    96 NMult    64 NNew     32
 New state      5 was old state      6
 New state      6 was old state      5
 New state     16 was old state     17
 Iteration     3 Dimension   128 NMult    96 NNew     32
 Iteration     4 Dimension   160 NMult   128 NNew     32
 Iteration     5 Dimension   178 NMult   160 NNew     18
 Iteration     6 Dimension   180 NMult   178 NNew      2
 ***********************************************************************
 Excited states from <AA,BB:AA,BB> singles matrix:
 ***********************************************************************
 
 Ground to excited state transition densities written to RWF  633
 Ground to excited state transition electric dipole moments (Au):
       state          X           Y           Z        Dip. S.      Osc.
         1         1.3369     -0.6199     -0.0000      2.1715      0.1891
         2         0.0001     -0.0000     -0.1311      0.0172      0.0016
         3        -0.0001     -0.0000     -0.1790      0.0320      0.0032
         4        -0.1600     -0.2890     -0.0000      0.1091      0.0113
         5        -0.0002      0.0002     -0.0637      0.0041      0.0004
         6         0.6732     -0.2089      0.0000      0.4968      0.0542
         7         0.0001      0.0003      0.3829      0.1466      0.0171
         8        -0.3879     -0.7062      0.0002      0.6492      0.0767
         9         0.0000      0.0000      0.1187      0.0141      0.0017
        10        -0.1558     -0.0344      0.0000      0.0254      0.0031
        11         0.0723     -0.0836     -0.0001      0.0122      0.0015
        12         1.0769      0.0372     -0.0002      1.1610      0.1533
        13        -0.0002     -0.0000     -0.8482      0.7195      0.0982
        14        -0.0000      0.0006     -0.5802      0.3366      0.0470
        15         0.3093      0.7390      0.0008      0.6418      0.0899
        16        -0.0005     -0.0005     -0.2597      0.0675      0.0095
 Ground to excited state transition velocity dipole moments (Au):
       state          X           Y           Z        Dip. S.      Osc.
         1        -0.1867      0.0822      0.0000      0.0416      0.2124
         2        -0.0000      0.0000      0.0215      0.0005      0.0022
         3         0.0000      0.0000      0.0203      0.0004      0.0018
         4         0.0181      0.0429      0.0000      0.0022      0.0093
         5         0.0000     -0.0000      0.0082      0.0001      0.0003
         6        -0.1208      0.0372     -0.0000      0.0160      0.0650
         7        -0.0000     -0.0001     -0.0701      0.0049      0.0187
         8         0.0598      0.1244     -0.0000      0.0190      0.0717
         9        -0.0000      0.0000     -0.0220      0.0005      0.0018
        10         0.0297     -0.0012      0.0000      0.0009      0.0032
        11        -0.0199      0.0055      0.0000      0.0004      0.0015
        12        -0.2089     -0.0087      0.0000      0.0437      0.1472
        13         0.0000      0.0000      0.1706      0.0291      0.0948
        14         0.0000     -0.0001      0.1225      0.0150      0.0478
        15        -0.0613     -0.1508     -0.0002      0.0265      0.0842
        16         0.0001      0.0001      0.0566      0.0032      0.0101
 Ground to excited state transition magnetic dipole moments (Au):
       state          X           Y           Z
         1         0.1698      0.1147     -0.0001
         2        -0.0000     -0.0000      0.6453
         3        -0.0001      0.0001      0.7244
         4        -0.1932     -0.3178      0.0000
         5         0.0001      0.0000      0.0732
         6        -0.1168      0.0207      0.0000
         7         0.0000      0.0002     -0.9567
         8        -0.1785     -0.4683     -0.0004
         9         0.0000     -0.0001     -0.3228
        10        -0.0749      0.0422     -0.0000
        11         0.0660     -0.0235      0.0001
        12         0.3993      0.8436      0.0003
        13         0.0000     -0.0002      1.6653
        14         0.0002      0.0002      1.0660
        15         0.1256      0.4486     -0.0014
        16        -0.0001     -0.0003      0.2673
 Ground to excited state transition velocity quadrupole moments (Au):
       state          XX          YY          ZZ          XY          XZ          YZ
         1         0.0000      0.0000     -0.0000      0.0000     -0.1500     -0.2210
         2        -0.1031     -0.1110      0.0078      0.1723     -0.0000     -0.0000
         3        -0.6436     -0.1519      0.0103      0.4926      0.0000     -0.0000
         4         0.0002     -0.0000     -0.0000     -0.0000      0.1183      0.0074
         5         0.6968     -0.0639     -0.0073     -0.1536      0.0000     -0.0000
         6         0.0003     -0.0000     -0.0000     -0.0000     -0.1332      0.0026
         7        -0.3651      0.1613      0.0058     -0.3151     -0.0001      0.0000
         8        -0.0001      0.0001      0.0000     -0.0002      0.2780     -0.0378
         9        -0.1324      0.0944      0.0006     -0.1277     -0.0000      0.0001
        10        -0.0000      0.0000     -0.0000     -0.0000      0.1155     -0.0379
        11         0.0000     -0.0000     -0.0000      0.0000      0.0069     -0.0844
        12         0.0003     -0.0000     -0.0000      0.0001     -0.2964     -0.4401
        13         1.5650     -0.3851      0.0405      0.8552      0.0001     -0.0000
        14         1.3341     -0.2080      0.0556      0.4681     -0.0002      0.0001
        15        -0.0017      0.0004     -0.0000     -0.0007     -0.4439      0.0130
        16         0.2637     -0.3007     -0.0505      0.4537      0.0004     -0.0001
 <0|del|b> * <b|rxdel|0> + <0|del|b> * <b|delr+rdel|0>
 Rotatory Strengths (R) in cgs (10**-40 erg-esu-cm/Gauss)
       state          XX          YY          ZZ    R(velocity)    E-M Angle
         1        58.9354     25.8655   -205.3635    -40.1875      122.19
         2        44.2109     25.5771     -0.0000     23.2627       90.00
         3        58.2683     11.0998     -0.0000     23.1227       90.00
         4       -42.5169     -7.6233    -27.6818    -25.9407      171.53
         5        -1.4410      4.0675      0.0000      0.8755       90.00
         6        12.3426     29.7754     22.1055     21.4078        7.06
         7       179.9851     90.8001     -0.0000     90.2618       90.00
         8      -185.2829    -25.8146    -64.0443    -91.7139      175.19
         9        19.3532      8.3788      0.0000      9.2440       90.00
        10         0.1656     -6.4511     -2.4711     -2.9188      152.85
        11        -0.3175      0.6854     -5.7970     -1.8097      175.98
        12       -17.6673     15.2091   -321.5728   -108.0103      117.71
        13       743.0928    238.8126     -0.0000    327.3018       90.00
        14       317.4066    123.7182      0.0000    147.0416        0.06
        15      -226.6495    -14.3059    -12.8261    -84.5938      173.52
        16        68.2486    -17.6420      0.0000     16.8689       90.00
 1/2[<0|r|b>*<b|rxdel|0> + (<0|rxdel|b>*<b|r|0>)*]
 Rotatory Strengths (R) in cgs (10**-40 erg-esu-cm/Gauss)
       state          XX          YY          ZZ     R(length)
         1      -160.5127     50.2685     -0.0000    -36.7481
         2         0.0000     -0.0000     59.8217     19.9406
         3        -0.0000      0.0000     91.7057     30.5686
         4       -21.8567    -64.9327      0.0000    -28.9298
         5         0.0000     -0.0000      3.2977      1.0992
         6        55.5963      3.0545     -0.0000     19.5503
         7        -0.0000     -0.0000    259.0767     86.3589
         8       -48.9594   -233.8941      0.0000    -94.2845
         9        -0.0000      0.0000     27.0897      9.0299
        10        -8.2476      1.0256      0.0000     -2.4073
        11        -3.3768     -1.3922      0.0000     -1.5897
        12      -304.0821    -22.1871      0.0000   -108.7564
        13         0.0000     -0.0000    998.9089    332.9696
        14         0.0000     -0.0001    437.3688    145.7896
        15       -27.4711   -234.4403      0.0008    -87.3035
        16        -0.0000     -0.0001     49.1026     16.3675
  1/2[<0|del|b>*<b|r|0> + (<0|r|b>*<b|del|0>)*] (Au)
       state          X           Y           Z        Dip. S.   Osc.(frdel)
         1        -0.2496     -0.0510     -0.0000      0.3006      0.2004
         2        -0.0000     -0.0000     -0.0028      0.0028      0.0019
         3        -0.0000     -0.0000     -0.0036      0.0036      0.0024
         4        -0.0029     -0.0124     -0.0000      0.0153      0.0102
         5        -0.0000     -0.0000     -0.0005      0.0005      0.0003
         6        -0.0813     -0.0078     -0.0000      0.0891      0.0594
         7        -0.0000     -0.0000     -0.0269      0.0269      0.0179
         8        -0.0232     -0.0878     -0.0000      0.1110      0.0740
         9        -0.0000      0.0000     -0.0026      0.0026      0.0017
        10        -0.0046      0.0000      0.0000      0.0046      0.0031
        11        -0.0014     -0.0005     -0.0000      0.0019      0.0013
        12        -0.2249     -0.0003     -0.0000      0.2253      0.1502
        13        -0.0000     -0.0000     -0.1447      0.1447      0.0965
        14        -0.0000     -0.0000     -0.0711      0.0711      0.0474
        15        -0.0190     -0.1115     -0.0000      0.1304      0.0870
        16        -0.0000     -0.0000     -0.0147      0.0147      0.0098

 Excitation energies and oscillator strengths:
 
 Excited State   1:      Singlet-A      3.5538 eV  348.88 nm  f=0.1891  <S**2>=0.000
      75 -> 76         0.69608
 This state for optimization and/or second-order correction.
 Total Energy, E(TD-HF/TD-DFT) =  -920.874716583    
 Copying the excited state density for this state as the 1-particle RhoCI density.
 
 Excited State   2:      Singlet-A      3.8210 eV  324.48 nm  f=0.0016  <S**2>=0.000
      74 -> 76         0.62577
      75 -> 77        -0.31069
 
 Excited State   3:      Singlet-A      4.0830 eV  303.66 nm  f=0.0032  <S**2>=0.000
      72 -> 76         0.17041
      72 -> 78         0.10201
      74 -> 76         0.25610
      75 -> 77         0.59403
      75 -> 79         0.14575
 
 Excited State   4:      Singlet-A      4.2342 eV  292.81 nm  f=0.0113  <S**2>=0.000
      72 -> 77         0.10438
      73 -> 76         0.47459
      74 -> 77         0.28330
      74 -> 79         0.12917
      75 -> 78        -0.39172
 
 Excited State   5:      Singlet-A      4.3922 eV  282.28 nm  f=0.0004  <S**2>=0.000
      72 -> 76         0.53427
      74 -> 76        -0.16289
      74 -> 78        -0.17088
      75 -> 77        -0.18044
      75 -> 79         0.33547
 
 Excited State   6:      Singlet-A      4.4561 eV  278.24 nm  f=0.0542  <S**2>=0.000
      73 -> 76        -0.35080
      74 -> 77         0.59547
 
 Excited State   7:      Singlet-A      4.7670 eV  260.09 nm  f=0.0171  <S**2>=0.000
      72 -> 76        -0.35124
      73 -> 77         0.42672
      75 -> 79         0.42612
 
 Excited State   8:      Singlet-A      4.8195 eV  257.26 nm  f=0.0767  <S**2>=0.000
      72 -> 77        -0.31604
      73 -> 76         0.29517
      74 -> 77         0.17356
      74 -> 79         0.21137
      75 -> 78         0.47332
 
 Excited State   9:      Singlet-A      4.9210 eV  251.95 nm  f=0.0017  <S**2>=0.000
      73 -> 77        -0.33686
      74 -> 78         0.52786
      75 -> 79         0.30415
 
 Excited State  10:      Singlet-A      4.9908 eV  248.43 nm  f=0.0031  <S**2>=0.000
      71 -> 76        -0.15190
      72 -> 77         0.44755
      74 -> 79         0.47448
      75 -> 78         0.17289
 
 Excited State  11:      Singlet-A      5.1124 eV  242.52 nm  f=0.0015  <S**2>=0.000
      71 -> 76         0.61665
      72 -> 77         0.17345
      75 -> 80        -0.28022
 
 Excited State  12:      Singlet-A      5.3879 eV  230.12 nm  f=0.1533  <S**2>=0.000
      71 -> 76         0.26989
      74 -> 79         0.14985
      75 -> 80         0.61458
 
 Excited State  13:      Singlet-A      5.5681 eV  222.67 nm  f=0.0982  <S**2>=0.000
      70 -> 76         0.24388
      71 -> 77         0.35024
      72 -> 76         0.11934
      73 -> 77         0.27034
      73 -> 79         0.10447
      74 -> 78         0.24357
      74 -> 80        -0.23067
      75 -> 79        -0.14650
      75 -> 81         0.26420
 
 Excited State  14:      Singlet-A      5.6958 eV  217.68 nm  f=0.0470  <S**2>=0.000
      71 -> 77        -0.31923
      72 -> 78         0.47371
      73 -> 77         0.10346
      73 -> 79         0.13236
      74 -> 78         0.20155
      74 -> 80        -0.13976
      75 -> 79        -0.12642
      75 -> 81        -0.21358
 
 Excited State  15:      Singlet-A      5.7140 eV  216.98 nm  f=0.0899  <S**2>=0.000
      72 -> 77        -0.12371
      72 -> 79         0.38450
      73 -> 78         0.54752
      74 -> 79         0.12188
 
 Excited State  16:      Singlet-A      5.7516 eV  215.56 nm  f=0.0095  <S**2>=0.000
      70 -> 76        -0.16583
      73 -> 77         0.10016
      73 -> 79         0.47036
      74 -> 80         0.44040
 SavETr:  write IOETrn=   770 NScale= 10 NData=  16 NLR=1 NState=   16 LETran=     298.

 **********************************************************************

            Population analysis using the SCF Density.

 **********************************************************************

 Orbital symmetries:
       Occupied  (A) (A) (A) (A) (A) (A) (A) (A) (A) (A) (A) (A)
                 (A) (A) (A) (A) (A) (A) (A) (A) (A) (A) (A) (A)
                 (A) (A) (A) (A) (A) (A) (A) (A) (A) (A) (A) (A)
                 (A) (A) (A) (A) (A) (A) (A) (A) (A) (A) (A) (A)
                 (A) (A) (A) (A) (A) (A) (A) (A) (A) (A) (A) (A)
                 (A) (A) (A) (A) (A) (A) (A) (A) (A) (A) (A) (A)
                 (A) (A) (A)
       Virtual   (A) (A) (A) (A) (A) (A) (A) (A) (A) (A) (A) (A)
                 (A) (A) (A) (A) (A) (A) (A) (A) (A) (A) (A) (A)
                 (A) (A) (A) (A) (A) (A) (A) (A) (A) (A) (A) (A)
                 (A) (A) (A) (A) (A) (A) (A) (A) (A) (A) (A) (A)
                 (A) (A) (A) (A) (A) (A) (A) (A) (A) (A) (A) (A)
                 (A) (A) (A) (A) (A) (A) (A) (A) (A) (A) (A) (A)
                 (A) (A) (A) (A) (A) (A) (A) (A) (A) (A) (A) (A)
                 (A) (A) (A) (A) (A) (A) (A) (A) (A) (A) (A) (A)
                 (A) (A) (A) (A) (A) (A) (A) (A) (A) (A) (A) (A)
                 (A) (A) (A) (A) (A) (A) (A) (A) (A) (A) (A) (A)
                 (A) (A) (A) (A) (A) (A) (A) (A) (A) (A) (A) (A)
                 (A) (A) (A) (A) (A) (A) (A) (A) (A) (A) (A) (A)
                 (A) (A) (A) (A) (A) (A) (A) (A) (A) (A) (A) (A)
                 (A) (A) (A) (A) (A) (A) (A) (A) (A) (A) (A) (A)
                 (A) (A) (A) (A) (A) (A) (A) (A) (A) (A) (A) (A)
                 (A) (A) (A) (A) (A) (A) (A) (A) (A) (A) (A) (A)
                 (A) (A) (A) (A) (A) (A) (A) (A) (A) (A) (A) (A)
                 (A) (A) (A) (A) (A) (A) (A) (A) (A) (A) (A) (A)
                 (A) (A) (A) (A) (A) (A) (A) (A) (A) (A) (A) (A)
                 (A) (A) (A) (A) (A) (A) (A) (A) (A) (A) (A) (A)
                 (A) (A) (A) (A) (A) (A) (A) (A) (A) (A) (A) (A)
                 (A) (A) (A) (A) (A) (A) (A) (A) (A) (A) (A) (A)
                 (A) (A) (A) (A) (A) (A) (A) (A) (A) (A) (A) (A)
                 (A) (A) (A) (A) (A) (A) (A)
 The electronic state is 1-A.
 Alpha  occ. eigenvalues --  -19.17483 -19.17483 -10.24690 -10.24689 -10.19419
 Alpha  occ. eigenvalues --  -10.19419 -10.19190 -10.19185 -10.19185 -10.19163
 Alpha  occ. eigenvalues --  -10.19118 -10.19118 -10.18838 -10.18838 -10.18218
 Alpha  occ. eigenvalues --  -10.18218 -10.18063 -10.18062 -10.17965 -10.17965
 Alpha  occ. eigenvalues --  -10.17599 -10.17598  -1.05724  -1.05617  -0.86904
 Alpha  occ. eigenvalues --   -0.85915  -0.81379  -0.80877  -0.78672  -0.75050
 Alpha  occ. eigenvalues --   -0.72962  -0.72934  -0.71862  -0.70438  -0.63021
 Alpha  occ. eigenvalues --   -0.62607  -0.61036  -0.61011  -0.59684  -0.56697
 Alpha  occ. eigenvalues --   -0.54686  -0.54468  -0.51649  -0.50163  -0.48928
 Alpha  occ. eigenvalues --   -0.48842  -0.46360  -0.46310  -0.44344  -0.43243
 Alpha  occ. eigenvalues --   -0.42531  -0.42154  -0.41589  -0.41472  -0.41452
 Alpha  occ. eigenvalues --   -0.39727  -0.39231  -0.39071  -0.38727  -0.36672
 Alpha  occ. eigenvalues --   -0.36101  -0.35769  -0.35099  -0.34082  -0.33811
 Alpha  occ. eigenvalues --   -0.33112  -0.31363  -0.30381  -0.29870  -0.28284
 Alpha  occ. eigenvalues --   -0.25535  -0.22756  -0.22532  -0.20541  -0.18984
 Alpha virt. eigenvalues --   -0.04175  -0.02109   0.00317   0.00634   0.03150
 Alpha virt. eigenvalues --    0.05009   0.06990   0.07031   0.10011   0.10315
 Alpha virt. eigenvalues --    0.10820   0.11464   0.11938   0.12073   0.14383
 Alpha virt. eigenvalues --    0.15445   0.17523   0.17551   0.18763   0.18967
 Alpha virt. eigenvalues --    0.19929   0.20129   0.20500   0.21606   0.23025
 Alpha virt. eigenvalues --    0.24380   0.26101   0.27475   0.27706   0.29521
 Alpha virt. eigenvalues --    0.30900   0.31839   0.32338   0.32527   0.33570
 Alpha virt. eigenvalues --    0.34775   0.36454   0.36954   0.36968   0.39846
 Alpha virt. eigenvalues --    0.40847   0.48528   0.49453   0.50352   0.50408
 Alpha virt. eigenvalues --    0.50974   0.51434   0.52516   0.52616   0.53619
 Alpha virt. eigenvalues --    0.53954   0.54567   0.55569   0.55665   0.56039
 Alpha virt. eigenvalues --    0.56060   0.56665   0.57086   0.57245   0.59415
 Alpha virt. eigenvalues --    0.59639   0.60313   0.60557   0.60826   0.60944
 Alpha virt. eigenvalues --    0.61597   0.62041   0.62345   0.62904   0.63006
 Alpha virt. eigenvalues --    0.63077   0.63646   0.63714   0.64813   0.64952
 Alpha virt. eigenvalues --    0.66454   0.67249   0.67325   0.67603   0.68708
 Alpha virt. eigenvalues --    0.70776   0.71844   0.73974   0.75738   0.77559
 Alpha virt. eigenvalues --    0.79188   0.79930   0.82100   0.82140   0.84059
 Alpha virt. eigenvalues --    0.84221   0.84403   0.84732   0.85079   0.86133
 Alpha virt. eigenvalues --    0.86430   0.87458   0.88337   0.88870   0.89275
 Alpha virt. eigenvalues --    0.89810   0.90522   0.90672   0.91639   0.93608
 Alpha virt. eigenvalues --    0.93981   0.95029   0.95203   0.95549   0.98363
 Alpha virt. eigenvalues --    0.98649   1.00106   1.01728   1.02724   1.02857
 Alpha virt. eigenvalues --    1.03801   1.06146   1.06657   1.07272   1.08676
 Alpha virt. eigenvalues --    1.09458   1.10809   1.12417   1.13307   1.15279
 Alpha virt. eigenvalues --    1.17106   1.17394   1.18990   1.22155   1.23007
 Alpha virt. eigenvalues --    1.24122   1.26034   1.26971   1.28322   1.28627
 Alpha virt. eigenvalues --    1.30806   1.31064   1.31816   1.33636   1.35597
 Alpha virt. eigenvalues --    1.35724   1.39272   1.39700   1.41073   1.41932
 Alpha virt. eigenvalues --    1.43323   1.43459   1.46037   1.47113   1.47135
 Alpha virt. eigenvalues --    1.48263   1.48538   1.48877   1.50122   1.50606
 Alpha virt. eigenvalues --    1.51481   1.51581   1.52700   1.52828   1.56420
 Alpha virt. eigenvalues --    1.61141   1.63998   1.70848   1.71640   1.74381
 Alpha virt. eigenvalues --    1.76256   1.76866   1.77605   1.78708   1.79098
 Alpha virt. eigenvalues --    1.79653   1.79660   1.80734   1.83482   1.85047
 Alpha virt. eigenvalues --    1.85536   1.87035   1.90081   1.90735   1.91064
 Alpha virt. eigenvalues --    1.91842   1.92198   1.93218   1.93233   1.94787
 Alpha virt. eigenvalues --    1.94940   1.97795   1.98473   1.99233   2.00706
 Alpha virt. eigenvalues --    2.02012   2.02301   2.04987   2.05679   2.06481
 Alpha virt. eigenvalues --    2.06722   2.07467   2.07848   2.14400   2.15110
 Alpha virt. eigenvalues --    2.15893   2.16781   2.20124   2.20603   2.21841
 Alpha virt. eigenvalues --    2.22591   2.23673   2.26459   2.27598   2.28984
 Alpha virt. eigenvalues --    2.30728   2.31873   2.33734   2.33805   2.34051
 Alpha virt. eigenvalues --    2.34275   2.35530   2.35723   2.37061   2.38988
 Alpha virt. eigenvalues --    2.40169   2.41118   2.46741   2.48173   2.50411
 Alpha virt. eigenvalues --    2.50764   2.57579   2.58713   2.60626   2.61127
 Alpha virt. eigenvalues --    2.62052   2.63924   2.64403   2.65018   2.65887
 Alpha virt. eigenvalues --    2.66480   2.67957   2.68161   2.70235   2.74637
 Alpha virt. eigenvalues --    2.75561   2.76820   2.80170   2.81647   2.83620
 Alpha virt. eigenvalues --    2.85144   2.87107   2.87736   2.88112   2.90144
 Alpha virt. eigenvalues --    2.92274   2.97414   3.02878   3.05690   3.06351
 Alpha virt. eigenvalues --    3.14581   3.19468   3.35662   3.39279   3.47175
 Alpha virt. eigenvalues --    3.49809   3.95383   4.06138   4.09865   4.10181
 Alpha virt. eigenvalues --    4.10885   4.11332   4.14608   4.15644   4.16082
 Alpha virt. eigenvalues --    4.16377   4.22339   4.30003   4.30149   4.31059
 Alpha virt. eigenvalues --    4.40929   4.41057   4.43580   4.48982   4.57200
 Alpha virt. eigenvalues --    4.63111   4.80366   4.89386
          Condensed to atoms (all electrons):
               1          2          3          4          5          6
     1  C    4.907383   0.519595  -0.002455  -0.038657  -0.021861   0.494430
     2  C    0.519595   5.105589   0.450742  -0.047883  -0.067930  -0.019742
     3  C   -0.002455   0.450742   4.809072   0.447819  -0.028630  -0.038502
     4  C   -0.038657  -0.047883   0.447819   4.759264   0.452564  -0.005972
     5  C   -0.021861  -0.067930  -0.028630   0.452564   5.089398   0.520175
     6  C    0.494430  -0.019742  -0.038502  -0.005972   0.520175   4.908428
     7  H    0.356969  -0.038089   0.003003   0.000991   0.004519  -0.043213
     8  H   -0.046640   0.343960  -0.030739   0.005711   0.000537   0.004684
     9  C    0.008036  -0.086175   0.403116  -0.014700   0.013436  -0.000664
    10  C   -0.000538   0.015459  -0.019761   0.432214  -0.086480   0.008220
    11  H    0.004709   0.000500   0.004270  -0.043924   0.354392  -0.045749
    12  H   -0.040965   0.004191   0.001035   0.002783  -0.037429   0.355615
    13  C    0.000068  -0.001068  -0.055920   0.002557   0.009344  -0.000430
    14  C   -0.000262   0.012053   0.013886  -0.057567  -0.000762   0.000040
    15  H    0.000013  -0.000199   0.004489  -0.037328  -0.008381   0.000204
    16  H   -0.000000   0.000015   0.000979   0.002333  -0.000205   0.000004
    17  C    0.000000   0.000000  -0.000001   0.000000  -0.000000  -0.000000
    18  C   -0.000000   0.000001  -0.000001  -0.000000   0.000000  -0.000000
    19  C   -0.000002   0.000013   0.000061   0.000000  -0.000000   0.000000
    20  C    0.000044  -0.000295  -0.000122   0.000061  -0.000001  -0.000001
    21  C   -0.000001   0.000011  -0.000295   0.000013   0.000001   0.000000
    22  C   -0.000000  -0.000001   0.000044  -0.000002  -0.000000   0.000000
    23  H   -0.000000  -0.000000   0.000000   0.000000  -0.000000   0.000000
    24  H    0.000000  -0.000000   0.000000  -0.000000  -0.000000   0.000000
    25  H   -0.000000   0.000000  -0.000000   0.000000  -0.000000   0.000000
    26  C    0.000000  -0.000060  -0.000002   0.000000  -0.000000   0.000000
    27  C    0.001291  -0.022669  -0.061545   0.008480  -0.000060  -0.000030
    28  H    0.000002  -0.000013  -0.000200  -0.000045  -0.000003   0.000000
    29  H   -0.000000  -0.000000  -0.000000   0.000000   0.000000   0.000000
    30  C   -0.000009   0.001547  -0.010387  -0.000050  -0.000017  -0.000002
    31  C   -0.000046  -0.001049   0.001026   0.000011  -0.000000   0.000000
    32  H    0.000001   0.000027  -0.000012  -0.000000   0.000000  -0.000000
    33  O    0.000000  -0.000053   0.002304   0.000238  -0.000000  -0.000000
    34  H   -0.000000   0.000006   0.000114  -0.000112  -0.000001   0.000000
    35  O   -0.000646   0.001553  -0.005270  -0.000461  -0.000000   0.000009
    36  H    0.000048   0.000287   0.000057   0.000008  -0.000000  -0.000001
               7          8          9         10         11         12
     1  C    0.356969  -0.046640   0.008036  -0.000538   0.004709  -0.040965
     2  C   -0.038089   0.343960  -0.086175   0.015459   0.000500   0.004191
     3  C    0.003003  -0.030739   0.403116  -0.019761   0.004270   0.001035
     4  C    0.000991   0.005711  -0.014700   0.432214  -0.043924   0.002783
     5  C    0.004519   0.000537   0.013436  -0.086480   0.354392  -0.037429
     6  C   -0.043213   0.004684  -0.000664   0.008220  -0.045749   0.355615
     7  H    0.603701  -0.005920  -0.000177   0.000008  -0.000201  -0.004829
     8  H   -0.005920   0.595627  -0.015384  -0.000192   0.000019  -0.000190
     9  C   -0.000177  -0.015384   5.266586  -0.064210  -0.000160   0.000015
    10  C    0.000008  -0.000192  -0.064210   5.133515  -0.008936  -0.000203
    11  H   -0.000201   0.000019  -0.000160  -0.008936   0.609258  -0.005428
    12  H   -0.004829  -0.000190   0.000015  -0.000203  -0.005428   0.600928
    13  C   -0.000000   0.000017  -0.033528   0.446030   0.000345   0.000004
    14  C    0.000003  -0.000117   0.422966   0.012811   0.000009  -0.000000
    15  H   -0.000000   0.000002   0.000658   0.349270   0.006830  -0.000013
    16  H   -0.000000   0.000000   0.003876  -0.027394  -0.000012  -0.000000
    17  C    0.000000   0.000000  -0.000030   0.000000   0.000000   0.000000
    18  C    0.000000  -0.000003  -0.000061  -0.000000  -0.000000  -0.000000
    19  C    0.000000  -0.000045   0.008483   0.000000   0.000000  -0.000000
    20  C   -0.000000  -0.000199  -0.061556  -0.000002  -0.000000   0.000000
    21  C   -0.000000  -0.000013  -0.022682  -0.000060   0.000000  -0.000000
    22  C   -0.000000   0.000002   0.001291   0.000000  -0.000000   0.000000
    23  H   -0.000000  -0.000001   0.000010  -0.000000   0.000000   0.000000
    24  H   -0.000000  -0.000000   0.000000   0.000000  -0.000000   0.000000
    25  H    0.000000   0.000000   0.000001  -0.000000   0.000000  -0.000000
    26  C   -0.000000   0.000023  -0.000984  -0.000000  -0.000000   0.000000
    27  C   -0.000001   0.006370   0.287063  -0.000984   0.000001   0.000000
    28  H   -0.000000  -0.000006   0.006377   0.000023   0.000000  -0.000000
    29  H    0.000000  -0.000000  -0.000001  -0.000000   0.000000  -0.000000
    30  C    0.000009   0.009460  -0.057688   0.000047   0.000000  -0.000000
    31  C   -0.000001   0.001973   0.007613  -0.000000   0.000000   0.000000
    32  H    0.000000   0.000013  -0.000123   0.000000  -0.000000  -0.000000
    33  O   -0.000000  -0.000001  -0.060433   0.005071  -0.000000   0.000000
    34  H    0.000000   0.000000   0.006853   0.000939  -0.000000  -0.000000
    35  O   -0.000014  -0.003879   0.002846   0.000011   0.000000   0.000000
    36  H    0.000001   0.000320  -0.000372  -0.000000  -0.000000  -0.000000
              13         14         15         16         17         18
     1  C    0.000068  -0.000262   0.000013  -0.000000   0.000000  -0.000000
     2  C   -0.001068   0.012053  -0.000199   0.000015   0.000000   0.000001
     3  C   -0.055920   0.013886   0.004489   0.000979  -0.000001  -0.000001
     4  C    0.002557  -0.057567  -0.037328   0.002333   0.000000  -0.000000
     5  C    0.009344  -0.000762  -0.008381  -0.000205  -0.000000   0.000000
     6  C   -0.000430   0.000040   0.000204   0.000004  -0.000000  -0.000000
     7  H   -0.000000   0.000003  -0.000000  -0.000000   0.000000   0.000000
     8  H    0.000017  -0.000117   0.000002   0.000000   0.000000  -0.000003
     9  C   -0.033528   0.422966   0.000658   0.003876  -0.000030  -0.000061
    10  C    0.446030   0.012811   0.349270  -0.027394   0.000000  -0.000000
    11  H    0.000345   0.000009   0.006830  -0.000012   0.000000  -0.000000
    12  H    0.000004  -0.000000  -0.000013  -0.000000   0.000000  -0.000000
    13  C    5.181041   0.411122  -0.040008   0.340453   0.000000  -0.000000
    14  C    0.411122   4.754763   0.003126  -0.041964  -0.000002  -0.000018
    15  H   -0.040008   0.003126   0.594690  -0.005339   0.000000  -0.000000
    16  H    0.340453  -0.041964  -0.005339   0.605489  -0.000000   0.000000
    17  C    0.000000  -0.000002   0.000000  -0.000000   4.908432   0.520179
    18  C   -0.000000  -0.000018  -0.000000   0.000000   0.520179   5.089401
    19  C    0.000011  -0.000050   0.000000  -0.000000  -0.005979   0.452550
    20  C    0.001026  -0.010388   0.000000  -0.000012  -0.038504  -0.028618
    21  C   -0.001049   0.001549  -0.000000   0.000027  -0.019746  -0.067929
    22  C   -0.000046  -0.000009  -0.000000   0.000001   0.494426  -0.021855
    23  H    0.000000  -0.000000  -0.000000  -0.000000   0.000204  -0.008381
    24  H    0.000000  -0.000000   0.000000  -0.000000   0.355616  -0.037430
    25  H    0.000000   0.000000   0.000000  -0.000000  -0.045747   0.354391
    26  C   -0.000000   0.000047  -0.000000   0.000000   0.008219  -0.086480
    27  C    0.007612  -0.057695   0.000010  -0.000123  -0.000664   0.013438
    28  H    0.001974   0.009466  -0.000001   0.000013   0.004683   0.000537
    29  H   -0.000001   0.000009  -0.000000   0.000000  -0.043210   0.004518
    30  C   -0.000288   0.005264  -0.000000   0.000002   0.000039  -0.000762
    31  C    0.000002  -0.000288   0.000000  -0.000000  -0.000430   0.009345
    32  H   -0.000000   0.000002  -0.000000   0.000000   0.000004  -0.000205
    33  O   -0.063053   0.270783  -0.000059  -0.005593   0.000009  -0.000000
    34  H   -0.005945  -0.032068  -0.000017   0.008423  -0.000001  -0.000000
    35  O   -0.000017  -0.000159   0.000000   0.000000  -0.000000  -0.000000
    36  H   -0.000000   0.000020  -0.000000   0.000000   0.000000  -0.000001
              19         20         21         22         23         24
     1  C   -0.000002   0.000044  -0.000001  -0.000000  -0.000000   0.000000
     2  C    0.000013  -0.000295   0.000011  -0.000001  -0.000000  -0.000000
     3  C    0.000061  -0.000122  -0.000295   0.000044   0.000000   0.000000
     4  C    0.000000   0.000061   0.000013  -0.000002   0.000000  -0.000000
     5  C   -0.000000  -0.000001   0.000001  -0.000000  -0.000000  -0.000000
     6  C    0.000000  -0.000001   0.000000   0.000000   0.000000   0.000000
     7  H    0.000000  -0.000000  -0.000000  -0.000000  -0.000000  -0.000000
     8  H   -0.000045  -0.000199  -0.000013   0.000002  -0.000001  -0.000000
     9  C    0.008483  -0.061556  -0.022682   0.001291   0.000010   0.000000
    10  C    0.000000  -0.000002  -0.000060   0.000000  -0.000000   0.000000
    11  H    0.000000  -0.000000   0.000000  -0.000000   0.000000  -0.000000
    12  H   -0.000000   0.000000  -0.000000   0.000000   0.000000   0.000000
    13  C    0.000011   0.001026  -0.001049  -0.000046   0.000000   0.000000
    14  C   -0.000050  -0.010388   0.001549  -0.000009  -0.000000  -0.000000
    15  H    0.000000   0.000000  -0.000000  -0.000000  -0.000000   0.000000
    16  H   -0.000000  -0.000012   0.000027   0.000001  -0.000000  -0.000000
    17  C   -0.005979  -0.038504  -0.019746   0.494426   0.000204   0.355616
    18  C    0.452550  -0.028618  -0.067929  -0.021855  -0.008381  -0.037430
    19  C    4.759295   0.447795  -0.047892  -0.038655  -0.037326   0.002784
    20  C    0.447795   4.809093   0.450741  -0.002444   0.004489   0.001034
    21  C   -0.047892   0.450741   5.105622   0.519575  -0.000199   0.004191
    22  C   -0.038655  -0.002444   0.519575   4.907406   0.000013  -0.040967
    23  H   -0.037326   0.004489  -0.000199   0.000013   0.594684  -0.000013
    24  H    0.002784   0.001034   0.004191  -0.040967  -0.000013   0.600932
    25  H   -0.043921   0.004270   0.000500   0.004709   0.006829  -0.005428
    26  C    0.432215  -0.019759   0.015459  -0.000538   0.349271  -0.000203
    27  C   -0.014684   0.403122  -0.086176   0.008038   0.000658   0.000015
    28  H    0.005711  -0.030736   0.343952  -0.046638   0.000002  -0.000190
    29  H    0.000991   0.003002  -0.038088   0.356967  -0.000000  -0.004829
    30  C   -0.057575   0.013889   0.012055  -0.000262   0.003125  -0.000000
    31  C    0.002562  -0.055925  -0.001068   0.000068  -0.040006   0.000004
    32  H    0.002333   0.000979   0.000015  -0.000000  -0.005338  -0.000000
    33  O   -0.000461  -0.005276   0.001565  -0.000647   0.000000   0.000000
    34  H    0.000008   0.000057   0.000288   0.000049  -0.000000  -0.000000
    35  O    0.000237   0.002305  -0.000053   0.000000  -0.000059   0.000000
    36  H   -0.000112   0.000114   0.000006  -0.000000  -0.000017  -0.000000
              25         26         27         28         29         30
     1  C   -0.000000   0.000000   0.001291   0.000002  -0.000000  -0.000009
     2  C    0.000000  -0.000060  -0.022669  -0.000013  -0.000000   0.001547
     3  C   -0.000000  -0.000002  -0.061545  -0.000200  -0.000000  -0.010387
     4  C    0.000000   0.000000   0.008480  -0.000045   0.000000  -0.000050
     5  C   -0.000000  -0.000000  -0.000060  -0.000003   0.000000  -0.000017
     6  C    0.000000   0.000000  -0.000030   0.000000   0.000000  -0.000002
     7  H    0.000000  -0.000000  -0.000001  -0.000000   0.000000   0.000009
     8  H    0.000000   0.000023   0.006370  -0.000006  -0.000000   0.009460
     9  C    0.000001  -0.000984   0.287063   0.006377  -0.000001  -0.057688
    10  C   -0.000000  -0.000000  -0.000984   0.000023  -0.000000   0.000047
    11  H    0.000000  -0.000000   0.000001   0.000000   0.000000   0.000000
    12  H   -0.000000   0.000000   0.000000  -0.000000  -0.000000  -0.000000
    13  C    0.000000  -0.000000   0.007612   0.001974  -0.000001  -0.000288
    14  C    0.000000   0.000047  -0.057695   0.009466   0.000009   0.005264
    15  H    0.000000  -0.000000   0.000010  -0.000001  -0.000000  -0.000000
    16  H   -0.000000   0.000000  -0.000123   0.000013   0.000000   0.000002
    17  C   -0.045747   0.008219  -0.000664   0.004683  -0.043210   0.000039
    18  C    0.354391  -0.086480   0.013438   0.000537   0.004518  -0.000762
    19  C   -0.043921   0.432215  -0.014684   0.005711   0.000991  -0.057575
    20  C    0.004270  -0.019759   0.403122  -0.030736   0.003002   0.013889
    21  C    0.000500   0.015459  -0.086176   0.343952  -0.038088   0.012055
    22  C    0.004709  -0.000538   0.008038  -0.046638   0.356967  -0.000262
    23  H    0.006829   0.349271   0.000658   0.000002  -0.000000   0.003125
    24  H   -0.005428  -0.000203   0.000015  -0.000190  -0.004829  -0.000000
    25  H    0.609253  -0.008935  -0.000160   0.000019  -0.000201   0.000009
    26  C   -0.008935   5.133532  -0.064218  -0.000192   0.000008   0.012812
    27  C   -0.000160  -0.064218   5.266589  -0.015386  -0.000177   0.422962
    28  H    0.000019  -0.000192  -0.015386   0.595630  -0.005918  -0.000117
    29  H   -0.000201   0.000008  -0.000177  -0.005918   0.603698   0.000003
    30  C    0.000009   0.012812   0.422962  -0.000117   0.000003   4.754720
    31  C    0.000345   0.446008  -0.033537   0.000017  -0.000000   0.411142
    32  H   -0.000012  -0.027395   0.003877   0.000000  -0.000000  -0.041964
    33  O    0.000000   0.000011   0.002850  -0.003892  -0.000014  -0.000158
    34  H   -0.000000  -0.000000  -0.000372   0.000320   0.000001   0.000020
    35  O   -0.000000   0.005073  -0.060437  -0.000001  -0.000000   0.270788
    36  H   -0.000000   0.000940   0.006853   0.000000   0.000000  -0.032078
              31         32         33         34         35         36
     1  C   -0.000046   0.000001   0.000000  -0.000000  -0.000646   0.000048
     2  C   -0.001049   0.000027  -0.000053   0.000006   0.001553   0.000287
     3  C    0.001026  -0.000012   0.002304   0.000114  -0.005270   0.000057
     4  C    0.000011  -0.000000   0.000238  -0.000112  -0.000461   0.000008
     5  C   -0.000000   0.000000  -0.000000  -0.000001  -0.000000  -0.000000
     6  C    0.000000  -0.000000  -0.000000   0.000000   0.000009  -0.000001
     7  H   -0.000001   0.000000  -0.000000   0.000000  -0.000014   0.000001
     8  H    0.001973   0.000013  -0.000001   0.000000  -0.003879   0.000320
     9  C    0.007613  -0.000123  -0.060433   0.006853   0.002846  -0.000372
    10  C   -0.000000   0.000000   0.005071   0.000939   0.000011  -0.000000
    11  H    0.000000  -0.000000  -0.000000  -0.000000   0.000000  -0.000000
    12  H    0.000000  -0.000000   0.000000  -0.000000   0.000000  -0.000000
    13  C    0.000002  -0.000000  -0.063053  -0.005945  -0.000017  -0.000000
    14  C   -0.000288   0.000002   0.270783  -0.032068  -0.000159   0.000020
    15  H    0.000000  -0.000000  -0.000059  -0.000017   0.000000  -0.000000
    16  H   -0.000000   0.000000  -0.005593   0.008423   0.000000   0.000000
    17  C   -0.000430   0.000004   0.000009  -0.000001  -0.000000   0.000000
    18  C    0.009345  -0.000205  -0.000000  -0.000000  -0.000000  -0.000001
    19  C    0.002562   0.002333  -0.000461   0.000008   0.000237  -0.000112
    20  C   -0.055925   0.000979  -0.005276   0.000057   0.002305   0.000114
    21  C   -0.001068   0.000015   0.001565   0.000288  -0.000053   0.000006
    22  C    0.000068  -0.000000  -0.000647   0.000049   0.000000  -0.000000
    23  H   -0.040006  -0.005338   0.000000  -0.000000  -0.000059  -0.000017
    24  H    0.000004  -0.000000   0.000000  -0.000000   0.000000  -0.000000
    25  H    0.000345  -0.000012   0.000000  -0.000000  -0.000000  -0.000000
    26  C    0.446008  -0.027395   0.000011  -0.000000   0.005073   0.000940
    27  C   -0.033537   0.003877   0.002850  -0.000372  -0.060437   0.006853
    28  H    0.000017   0.000000  -0.003892   0.000320  -0.000001   0.000000
    29  H   -0.000000  -0.000000  -0.000014   0.000001  -0.000000   0.000000
    30  C    0.411142  -0.041964  -0.000158   0.000020   0.270788  -0.032078
    31  C    5.181070   0.340449  -0.000017  -0.000000  -0.063061  -0.005945
    32  H    0.340449   0.605490   0.000000   0.000000  -0.005597   0.008425
    33  O   -0.000017   0.000000   8.248417   0.242790   0.000001  -0.000000
    34  H   -0.000000   0.000000   0.242790   0.372311  -0.000000  -0.000000
    35  O   -0.063061  -0.005597   0.000001  -0.000000   8.248443   0.242797
    36  H   -0.005945   0.008425  -0.000000  -0.000000   0.242797   0.372314
 Mulliken charges:
               1
     1  C   -0.140507
     2  C   -0.170324
     3  C    0.111824
     4  C    0.131655
     5  C   -0.192605
     6  C   -0.137503
     7  H    0.123242
     8  H    0.134610
     9  C   -0.020301
    10  C   -0.194860
    11  H    0.124076
    12  H    0.124488
    13  C   -0.200253
    14  C    0.283431
    15  H    0.132054
    16  H    0.119030
    17  C   -0.137500
    18  C   -0.192617
    19  C    0.131654
    20  C    0.111817
    21  C   -0.170317
    22  C   -0.140524
    23  H    0.132055
    24  H    0.124485
    25  H    0.124078
    26  C   -0.194854
    27  C   -0.020312
    28  H    0.134612
    29  H    0.123242
    30  C    0.283467
    31  C   -0.200261
    32  H    0.119032
    33  O   -0.634380
    34  H    0.406339
    35  O   -0.634409
    36  H    0.406336
 Sum of Mulliken charges =  -0.00000
 Mulliken charges with hydrogens summed into heavy atoms:
               1
     1  C   -0.017265
     2  C   -0.035714
     3  C    0.111824
     4  C    0.131655
     5  C   -0.068529
     6  C   -0.013015
     9  C   -0.020301
    10  C   -0.062806
    13  C   -0.081223
    14  C    0.283431
    17  C   -0.013015
    18  C   -0.068539
    19  C    0.131654
    20  C    0.111817
    21  C   -0.035705
    22  C   -0.017282
    26  C   -0.062799
    27  C   -0.020312
    30  C    0.283467
    31  C   -0.081228
    33  O   -0.228041
    35  O   -0.228073
 Electronic spatial extent (au):  <R**2>=           5983.8118
 Charge=             -0.0000 electrons
 Dipole moment (field-independent basis, Debye):
    X=             -0.0005    Y=             -0.0004    Z=             -0.4431  Tot=              0.4431
 Quadrupole moment (field-independent basis, Debye-Ang):
   XX=           -116.7254   YY=            -99.5053   ZZ=           -125.9952
   XY=             -5.9788   XZ=              0.0020   YZ=             -0.0013
 Traceless Quadrupole moment (field-independent basis, Debye-Ang):
   XX=             -2.6501   YY=             14.5700   ZZ=            -11.9199
   XY=             -5.9788   XZ=              0.0020   YZ=             -0.0013
 Octapole moment (field-independent basis, Debye-Ang**2):
  XXX=             -0.0062  YYY=             -0.0050  ZZZ=            -22.3293  XYY=             -0.0110
  XXY=             -0.0035  XXZ=             21.5026  XZZ=              0.0032  YZZ=              0.0073
  YYZ=            -38.3249  XYZ=             20.5614
 Hexadecapole moment (field-independent basis, Debye-Ang**3):
 XXXX=          -4929.1540 YYYY=          -1678.0619 ZZZZ=           -884.9107 XXXY=            -72.2785
 XXXZ=              0.0336 YYYX=            -19.4339 YYYZ=             -0.0103 ZZZX=              0.0206
 ZZZY=             -0.0256 XXYY=          -1150.5766 XXZZ=          -1044.2271 YYZZ=           -386.5919
 XXYZ=              0.0085 YYXZ=              0.0095 ZZXY=             32.8102
 N-N= 1.675655350725D+03 E-N=-5.491426487530D+03  KE= 9.123028104667D+02
 Unable to Open any file for archive entry.
 1\1\GINC-CCC179\SP\RB3LYP TD-FC\6-31G(d)\C20H14O2\ROOT\20-Feb-2025\0\\
 # td=(nstat=16) b3lyp/6-31g(d)\\binol | No.14\\0,1\C,0,-2.956474,-1.88
 6717,1.412829\C,0,-1.825303,-1.410276,0.788439\C,0,-1.817436,-0.161464
 ,0.104159\C,0,-3.026537,0.612973,0.158331\C,0,-4.184778,0.08391,0.7884
 97\C,0,-4.161775,-1.147864,1.397598\H,0,-2.918073,-2.840885,1.932359\H
 ,0,-0.912402,-1.988285,0.841905\C,0,-0.654182,0.362841,-0.573934\C,0,-
 3.032317,1.928349,-0.369357\H,0,-5.089381,0.688088,0.794849\H,0,-5.050
 492,-1.541423,1.883211\C,0,-1.89279,2.463751,-0.909324\C,0,-0.706913,1
 .693209,-0.988007\H,0,-3.946719,2.514529,-0.323177\H,0,-1.88834,3.4815
 41,-1.29673\C,0,4.16168,1.148179,1.397393\C,0,4.184786,-0.083659,0.788
 404\C,0,3.026504,-0.61295,0.158479\C,0,1.817351,0.161383,0.104414\C,0,
 1.825057,1.410184,0.788694\C,0,2.956251,1.886838,1.412863\H,0,3.946805
 ,-2.514506,-0.322781\H,0,5.050439,1.541953,1.882755\H,0,5.089487,-0.68
 7686,0.794655\C,0,3.032372,-1.928388,-0.36908\C,0,0.654211,-0.362982,-
 0.573772\H,0,0.911968,1.987918,0.842395\H,0,2.917776,2.840999,1.932402
 \C,0,0.707082,-1.6933,-0.987891\C,0,1.892883,-2.463861,-0.90902\H,0,1.
 888376,-3.481738,-1.296205\O,0,0.396557,2.224709,-1.603181\H,0,0.19934
 6,3.136513,-1.866441\O,0,-0.396314,-2.224893,-1.603144\H,0,-0.198761,-
 3.136485,-1.866896\\Version=ES64L-G16RevC.02\State=1-A\HF=-921.0053152
 \RMSD=6.876e-09\PG=C01 [X(C20H14O2)]\\@
 The archive entry for this job was punched.


 ALL PAPERS THAT YOU SAVE WILL NEVER BE NEEDED UNTIL
 SUCH TIME AS THEY ARE DISPOSED OF, WHEN THEY BECOME
 ESSENTIAL.

           -- JOHN CORCORAN IN
              PAUL DICKSON'S "THE OFFICIAL RULES"
 Job cpu time:       0 days  0 hours 48 minutes 10.2 seconds.
 Elapsed time:       0 days  0 hours  6 minutes 16.3 seconds.
 File lengths (MBytes):  RWF=   1295 Int=      0 D2E=      0 Chk=     78 Scr=      1
 Normal termination of Gaussian 16 at Thu Feb 20 09:33:31 2025.
