 Entering Gaussian System, Link 0=/apl/gaussian/16c02/g16/._.g16
 Initial command:
 /apl/gaussian/16c02/g16/l1.exe "/lwork/users/ux8/8279357.ccpbs1/gaussian/Gau-3132234.inp" -scrdir="/lwork/users/ux8/8279357.ccpbs1/gaussian/"
 Default CPUs for threads: 24,25,26,27,28,29,30,31
 Default is to use a total of   8 processors:
                                8 via shared-memory
                                1 via Linda
 Entering Link 1 = /apl/gaussian/16c02/g16/l1.exe PID=   3132235.
  
 Copyright (c) 1988-2021, Gaussian, Inc.  All Rights Reserved.
  
 This is part of the Gaussian(R) 16 program.  It is based on
 the Gaussian(R) 09 system (copyright 2009, Gaussian, Inc.),
 the Gaussian(R) 03 system (copyright 2003, Gaussian, Inc.),
 the Gaussian(R) 98 system (copyright 1998, Gaussian, Inc.),
 the Gaussian(R) 94 system (copyright 1995, Gaussian, Inc.),
 the Gaussian 92(TM) system (copyright 1992, Gaussian, Inc.),
 the Gaussian 90(TM) system (copyright 1990, Gaussian, Inc.),
 the Gaussian 88(TM) system (copyright 1988, Gaussian, Inc.),
 the Gaussian 86(TM) system (copyright 1986, Carnegie Mellon
 University), and the Gaussian 82(TM) system (copyright 1983,
 Carnegie Mellon University). Gaussian is a federally registered
 trademark of Gaussian, Inc.
  
 This software contains proprietary and confidential information,
 including trade secrets, belonging to Gaussian, Inc.
  
 This software is provided under written license and may be
 used, copied, transmitted, or stored only in accord with that
 written license.
  
 The following legend is applicable only to US Government
 contracts under FAR:
  
                    RESTRICTED RIGHTS LEGEND
  
 Use, reproduction and disclosure by the US Government is
 subject to restrictions as set forth in subparagraphs (a)
 and (c) of the Commercial Computer Software - Restricted
 Rights clause in FAR 52.227-19.
  
 Gaussian, Inc.
 340 Quinnipiac St., Bldg. 40, Wallingford CT 06492
  
  
 ---------------------------------------------------------------
 Warning -- This program may not be used in any manner that
 competes with the business of Gaussian, Inc. or will provide
 assistance to any competitor of Gaussian, Inc.  The licensee
 of this program is prohibited from giving any competitor of
 Gaussian, Inc. access to this program.  By using this program,
 the user acknowledges that Gaussian, Inc. is engaged in the
 business of creating and licensing software in the field of
 computational chemistry and represents and warrants to the
 licensee that it is not a competitor of Gaussian, Inc. and that
 it will not use this program in any manner prohibited above.
 ---------------------------------------------------------------
  

 Cite this work as:
 Gaussian 16, Revision C.02,
 M. J. Frisch, G. W. Trucks, H. B. Schlegel, G. E. Scuseria, 
 M. A. Robb, J. R. Cheeseman, G. Scalmani, V. Barone, 
 G. A. Petersson, H. Nakatsuji, X. Li, M. Caricato, A. V. Marenich, 
 J. Bloino, B. G. Janesko, R. Gomperts, B. Mennucci, H. P. Hratchian, 
 J. V. Ortiz, A. F. Izmaylov, J. L. Sonnenberg, D. Williams-Young, 
 F. Ding, F. Lipparini, F. Egidi, J. Goings, B. Peng, A. Petrone, 
 T. Henderson, D. Ranasinghe, V. G. Zakrzewski, J. Gao, N. Rega, 
 G. Zheng, W. Liang, M. Hada, M. Ehara, K. Toyota, R. Fukuda, 
 J. Hasegawa, M. Ishida, T. Nakajima, Y. Honda, O. Kitao, H. Nakai, 
 T. Vreven, K. Throssell, J. A. Montgomery, Jr., J. E. Peralta, 
 F. Ogliaro, M. J. Bearpark, J. J. Heyd, E. N. Brothers, K. N. Kudin, 
 V. N. Staroverov, T. A. Keith, R. Kobayashi, J. Normand, 
 K. Raghavachari, A. P. Rendell, J. C. Burant, S. S. Iyengar, 
 J. Tomasi, M. Cossi, J. M. Millam, M. Klene, C. Adamo, R. Cammi, 
 J. W. Ochterski, R. L. Martin, K. Morokuma, O. Farkas, 
 J. B. Foresman, and D. J. Fox, Gaussian, Inc., Wallingford CT, 2019.
 
 ******************************************
 Gaussian 16:  ES64L-G16RevC.02  7-Dec-2021
                20-Feb-2025 
 ******************************************
 %chk=binol.003.tddft.chk
 %mem=9600MB
 SetSPE:  set environment variable "OMP_PROC_BIND" = "true"
 SetSPE:  set environment variable "OMP_PLACES" = "{24},{25},{26},{27},{28},{29},{30},{31}"
 ------------------------------
 # td=(nstat=16) b3lyp/6-31g(d)
 ------------------------------
 1/38=1,172=1/1;
 2/12=2,17=6,18=5,40=1/2;
 3/5=1,6=6,7=1,11=9,25=1,30=1,74=-5/1,2,3,8;
 4//1;
 5/5=2,38=5/2;
 8/6=1,10=2,108=16/1;
 9/41=16,42=1,70=2/14;
 6/7=2,8=2,9=2,10=2/1;
 99/5=1,9=1/99;
 ------------
 binol | No.3
 ------------
 Symbolic Z-matrix:
 Charge =  0 Multiplicity = 1
 C                     1.79067  -2.82891  -1.68501 
 C                     1.33307  -1.72851  -0.99574 
 C                     0.13934  -1.78598  -0.22322 
 C                    -0.58117  -3.02689  -0.19767 
 C                    -0.07884  -4.145    -0.91552 
 C                     1.08421  -4.05485  -1.64411 
 H                     2.7041   -2.75545  -2.26975 
 H                     1.88048  -0.79344  -1.04258 
 C                    -0.35919  -0.65507   0.50202 
 C                    -1.79067  -3.10293   0.53858 
 H                    -0.63799  -5.07752  -0.88006 
 H                     1.45872  -4.91589  -2.19093 
 C                    -2.27088  -2.00868   1.21364 
 C                    -1.55658  -0.78452   1.19359 
 H                    -2.3389   -4.04163   0.55995 
 H                    -3.20107  -2.07198   1.77647 
 C                    -1.08421   4.05485  -1.64411 
 C                     0.07884   4.145    -0.91552 
 C                     0.58117   3.02689  -0.19767 
 C                    -0.13934   1.78598  -0.22322 
 C                    -1.33307   1.72851  -0.99574 
 C                    -1.79067   2.82891  -1.68501 
 H                     2.3389    4.04163   0.55995 
 H                    -1.45872   4.91589  -2.19093 
 H                     0.63799   5.07752  -0.88006 
 C                     1.79067   3.10293   0.53858 
 C                     0.35919   0.65507   0.50202 
 H                    -1.88048   0.79344  -1.04258 
 H                    -2.7041    2.75545  -2.26975 
 C                     1.55658   0.78452   1.19359 
 C                     2.27088   2.00868   1.21364 
 H                     3.20107   2.07198   1.77647 
 O                    -2.02859   0.30322   1.87792 
 H                    -2.86593   0.06445   2.30407 
 O                     2.02859  -0.30322   1.87792 
 H                     2.86593  -0.06445   2.30407 
 
                          Input orientation:                          
 ---------------------------------------------------------------------
 Center     Atomic      Atomic             Coordinates (Angstroms)
 Number     Number       Type             X           Y           Z
 ---------------------------------------------------------------------
      1          6           0        1.790670   -2.828907   -1.685010
      2          6           0        1.333070   -1.728514   -0.995738
      3          6           0        0.139337   -1.785983   -0.223215
      4          6           0       -0.581170   -3.026889   -0.197665
      5          6           0       -0.078836   -4.145001   -0.915517
      6          6           0        1.084215   -4.054853   -1.644107
      7          1           0        2.704099   -2.755454   -2.269745
      8          1           0        1.880478   -0.793441   -1.042576
      9          6           0       -0.359193   -0.655069    0.502015
     10          6           0       -1.790670   -3.102933    0.538577
     11          1           0       -0.637990   -5.077520   -0.880057
     12          1           0        1.458719   -4.915891   -2.190928
     13          6           0       -2.270879   -2.008677    1.213643
     14          6           0       -1.556582   -0.784517    1.193593
     15          1           0       -2.338904   -4.041627    0.559946
     16          1           0       -3.201073   -2.071979    1.776473
     17          6           0       -1.084215    4.054853   -1.644107
     18          6           0        0.078836    4.145001   -0.915517
     19          6           0        0.581170    3.026889   -0.197665
     20          6           0       -0.139337    1.785983   -0.223215
     21          6           0       -1.333070    1.728514   -0.995738
     22          6           0       -1.790670    2.828907   -1.685010
     23          1           0        2.338904    4.041627    0.559946
     24          1           0       -1.458719    4.915891   -2.190928
     25          1           0        0.637990    5.077520   -0.880057
     26          6           0        1.790670    3.102933    0.538577
     27          6           0        0.359193    0.655069    0.502015
     28          1           0       -1.880478    0.793441   -1.042576
     29          1           0       -2.704099    2.755454   -2.269745
     30          6           0        1.556582    0.784517    1.193593
     31          6           0        2.270879    2.008677    1.213643
     32          1           0        3.201073    2.071979    1.776473
     33          8           0       -2.028589    0.303220    1.877922
     34          1           0       -2.865932    0.064454    2.304065
     35          8           0        2.028589   -0.303220    1.877922
     36          1           0        2.865932   -0.064454    2.304065
 ---------------------------------------------------------------------
                    Distance matrix (angstroms):
                    1          2          3          4          5
     1  C    0.000000
     2  C    1.376720   0.000000
     3  C    2.439556   1.423058   0.000000
     4  C    2.806602   2.446837   1.435141   0.000000
     5  C    2.412317   2.799879   2.468167   1.420502   0.000000
     6  C    1.415519   2.427790   2.838926   2.433601   1.375375
     7  H    1.087043   2.134811   3.421427   3.893608   3.392566
     8  H    2.136331   1.084533   2.165194   3.429559   3.884329
     9  C    3.759064   2.501860   1.432989   2.482812   3.777251
    10  C    4.224385   3.741778   2.457562   1.418000   2.476019
    11  H    3.406259   3.887712   3.445271   2.161938   1.087889
    12  H    2.172935   3.406411   3.925428   3.420902   2.141266
    13  C    5.056792   4.236544   2.814835   2.425626   3.728573
    14  C    4.865181   3.746250   2.426195   2.813407   4.233784
    15  H    4.854266   4.610210   3.441359   2.166402   2.701034
    16  H    6.121462   5.325559   3.903701   3.416572   4.614390
    17  C    7.460080   6.301665   6.134442   7.245434   8.293325
    18  C    7.222042   6.006473   5.971559   7.237881   8.291501
    19  C    6.161610   4.880177   4.833178   6.164354   7.237881
    20  C    5.211428   3.887990   3.582820   4.833178   5.971559
    21  C    5.568028   4.365701   3.887990   4.880177   6.006473
    22  C    6.696033   5.568028   5.211428   6.161610   7.222042
    23  H    7.248767   6.060230   6.277936   7.685358   8.662756
    24  H    8.414058   7.305524   7.165249   8.235954   9.253676
    25  H    8.030455   6.842413   6.912870   8.223956   9.250405
    26  C    6.334908   5.089833   5.216199   6.613803   7.625089
    27  C    4.355490   2.978786   2.555979   3.864020   5.024136
    28  H    5.197254   4.085259   3.377045   4.122741   5.258352
    29  H    7.192354   6.166668   5.735683   6.498910   7.506145
    30  C    4.625796   3.340427   3.259356   4.586109   5.605630
    31  C    5.659948   4.441559   4.583391   5.956752   6.922589
    32  H    6.163585   5.061456   5.315717   6.648386   7.526982
    33  O    6.090274   4.866890   3.671437   4.182429   5.602813
    34  H    6.779985   5.633387   4.340841   4.586414   5.987748
    35  O    4.373807   3.282245   3.191024   4.305494   5.196520
    36  H    4.971027   4.000933   4.096966   5.188178   5.973963
                    6          7          8          9         10
     6  C    0.000000
     7  H    2.168844   0.000000
     8  H    3.410672   2.456377   0.000000
     9  C    4.271744   4.634439   2.724158   0.000000
    10  C    3.732991   5.311343   4.616397   2.835930   0.000000
    11  H    2.143737   4.300323   4.972165   4.641759   2.690760
    12  H    1.086579   2.494929   4.300138   5.358297   4.614709
    13  C    4.859036   6.118993   4.878636   2.448104   1.372484
    14  C    5.071632   5.833756   4.100477   1.388804   2.420516
    15  H    4.071335   5.923957   5.560753   3.923186   1.087273
    16  H    5.830596   7.190972   5.950114   3.421719   2.141142
    17  C    8.394607   7.818122   5.714648   5.226362   7.516455
    18  C    8.293325   7.506145   5.258352   5.024136   7.625089
    19  C    7.245434   6.498910   4.122741   3.864020   6.613803
    20  C    6.134442   5.735683   3.377045   2.555979   5.216199
    21  C    6.301665   6.166668   4.085259   2.978786   5.089833
    22  C    7.460080   7.192354   5.197254   4.355490   6.334908
    23  H    8.484402   7.371623   5.114305   5.416829   8.252186
    24  H    9.340223   8.728390   6.713078   6.284624   8.477141
    25  H    9.175136   8.219217   6.003197   5.980558   8.650475
    26  C    7.516455   6.560619   4.205929   4.329645   7.165108
    27  C    5.226362   4.981255   2.607346   1.494169   4.329645
    28  H    5.714648   5.926124   4.082032   2.607346   4.205929
    29  H    7.818122   7.721315   5.926124   4.981255   6.560619
    30  C    5.629847   5.083591   2.755959   2.494170   5.171596
    31  C    6.807445   5.917653   3.618674   3.810412   6.563570
    32  H    7.329361   6.318463   4.231033   4.662245   7.295862
    33  O    6.409917   6.996925   5.001278   2.366077   3.667742
    34  H    6.939770   7.739306   5.870639   3.169990   3.782258
    35  O    5.231757   4.865481   2.965057   2.778205   4.921278
    36  H    5.889470   5.309182   3.564063   3.741342   5.833802
                   11         12         13         14         15
    11  H    0.000000
    12  H    2.478043   0.000000
    13  C    4.058042   5.826912   0.000000
    14  C    4.855277   6.133129   1.417459   0.000000
    15  H    2.457599   4.770072   2.136547   3.409150   0.000000
    16  H    4.760233   6.748464   1.089057   2.168331   2.470382
    17  C    9.175136   9.340223   6.807445   5.629847   8.484402
    18  C    9.250405   9.253676   6.922589   5.605630   8.662756
    19  C    8.223956   8.235954   5.956752   4.586109   7.685358
    20  C    6.912870   7.165249   4.583391   3.259356   6.277936
    21  C    6.842413   7.305524   4.441559   3.340427   6.060230
    22  C    8.030455   8.414058   5.659948   4.625796   7.248767
    23  H    9.700224   9.411650   7.634369   6.234419   9.339212
    24  H   10.112381  10.255505   7.758888   6.630174   9.411650
    25  H   10.234889  10.112381   7.940988   6.593910   9.700224
    26  C    8.650475   8.477141   6.563570   5.171596   8.252186
    27  C    5.980558   6.284624   3.810412   2.494170   5.416829
    28  H    6.003197   6.713078   3.618674   2.755959   5.114305
    29  H    8.219217   8.728390   5.917653   5.083591   7.371623
    30  C    6.593910   6.630174   4.738332   3.486210   6.234419
    31  C    7.940988   7.758888   6.063555   4.738332   7.634369
    32  H    8.538788   8.222311   6.849145   5.579839   8.339512
    33  O    6.204239   7.480373   2.417610   1.369039   4.550940
    34  H    6.445328   7.981942   2.416812   1.915280   4.492172
    35  O    6.124625   6.177137   4.672823   3.681495   5.898113
    36  H    6.895428   6.761779   5.599629   4.616305   6.778656
                   16         17         18         19         20
    16  H    0.000000
    17  C    7.329361   0.000000
    18  C    7.526982   1.375375   0.000000
    19  C    6.648386   2.433601   1.420502   0.000000
    20  C    5.315717   2.838926   2.468167   1.435141   0.000000
    21  C    5.061456   2.427790   2.799879   2.446837   1.423058
    22  C    6.163585   1.415519   2.412317   2.806602   2.439556
    23  H    8.339512   4.071335   2.701034   2.166402   3.441359
    24  H    8.222311   1.086579   2.141266   3.420902   3.925428
    25  H    8.538788   2.143737   1.087889   2.161938   3.445271
    26  C    7.295862   3.732991   2.476019   1.418000   2.457562
    27  C    4.662245   4.271744   3.777251   2.482812   1.432989
    28  H    4.231033   3.410672   3.884329   3.429559   2.165194
    29  H    6.318463   2.168844   3.392566   3.893608   3.421427
    30  C    5.579839   5.071632   4.233784   2.813407   2.426195
    31  C    6.849145   4.859036   3.728573   2.425626   2.814835
    32  H    7.626261   5.830596   4.614390   3.416572   3.903701
    33  O    2.650770   5.231757   5.196520   4.305494   3.191024
    34  H    2.225987   5.889470   5.973963   5.188178   4.096966
    35  O    5.521609   6.409917   5.602813   4.182429   3.671437
    36  H    6.412259   6.939770   5.987748   4.586414   4.340841
                   21         22         23         24         25
    21  C    0.000000
    22  C    1.376720   0.000000
    23  H    4.610210   4.854266   0.000000
    24  H    3.406411   2.172935   4.770072   0.000000
    25  H    3.887712   3.406259   2.457599   2.478043   0.000000
    26  C    3.741778   4.224385   1.087273   4.614709   2.690760
    27  C    2.501860   3.759064   3.923186   5.358297   4.641759
    28  H    1.084533   2.136331   5.560753   4.300138   4.972165
    29  H    2.134811   1.087043   5.923957   2.494929   4.300323
    30  C    3.746250   4.865181   3.409150   6.133129   4.855277
    31  C    4.236544   5.056792   2.136547   5.826912   4.058042
    32  H    5.325559   6.121462   2.470382   6.748464   4.760233
    33  O    3.282245   4.373807   5.898113   6.177137   6.124625
    34  H    4.000933   4.971027   6.778656   6.761779   6.895428
    35  O    4.866890   6.090274   4.550940   7.480373   6.204239
    36  H    5.633387   6.779985   4.492172   7.981942   6.445328
                   26         27         28         29         30
    26  C    0.000000
    27  C    2.835930   0.000000
    28  H    4.616397   2.724158   0.000000
    29  H    5.311343   4.634439   2.456377   0.000000
    30  C    2.420516   1.388804   4.100477   5.833756   0.000000
    31  C    1.372484   2.448104   4.878636   6.118993   1.417459
    32  H    2.141142   3.421719   5.950114   7.190972   2.168331
    33  O    4.921278   2.778205   2.965057   4.865481   3.681495
    34  H    5.833802   3.741342   3.564063   5.309182   4.616305
    35  O    3.667742   2.366077   5.001278   6.996925   1.369039
    36  H    3.782258   3.169990   5.870639   7.739306   1.915280
                   31         32         33         34         35
    31  C    0.000000
    32  H    1.089057   0.000000
    33  O    4.672823   5.521609   0.000000
    34  H    5.599629   6.412259   0.969407   0.000000
    35  O    2.417610   2.650770   4.102251   4.926776   0.000000
    36  H    2.416812   2.225987   4.926776   5.733313   0.969407
                   36
    36  H    0.000000
 Stoichiometry    C20H14O2
 Framework group  C2[X(C20H14O2)]
 Deg. of freedom    52
 Full point group                 C2      NOp   2
 Largest Abelian subgroup         C2      NOp   2
 Largest concise Abelian subgroup C2      NOp   2
                         Standard orientation:                         
 ---------------------------------------------------------------------
 Center     Atomic      Atomic             Coordinates (Angstroms)
 Number     Number       Type             X           Y           Z
 ---------------------------------------------------------------------
      1          6           0       -1.790670    2.828907   -1.685010
      2          6           0       -1.333070    1.728514   -0.995738
      3          6           0       -0.139337    1.785983   -0.223215
      4          6           0        0.581170    3.026889   -0.197665
      5          6           0        0.078836    4.145001   -0.915517
      6          6           0       -1.084215    4.054853   -1.644107
      7          1           0       -2.704099    2.755454   -2.269745
      8          1           0       -1.880478    0.793441   -1.042576
      9          6           0        0.359193    0.655069    0.502015
     10          6           0        1.790670    3.102933    0.538577
     11          1           0        0.637990    5.077520   -0.880057
     12          1           0       -1.458719    4.915891   -2.190928
     13          6           0        2.270879    2.008677    1.213643
     14          6           0        1.556582    0.784517    1.193593
     15          1           0        2.338904    4.041627    0.559946
     16          1           0        3.201073    2.071979    1.776473
     17          6           0        1.084215   -4.054853   -1.644107
     18          6           0       -0.078836   -4.145001   -0.915517
     19          6           0       -0.581170   -3.026889   -0.197665
     20          6           0        0.139337   -1.785983   -0.223215
     21          6           0        1.333070   -1.728514   -0.995738
     22          6           0        1.790670   -2.828907   -1.685010
     23          1           0       -2.338904   -4.041627    0.559946
     24          1           0        1.458719   -4.915891   -2.190928
     25          1           0       -0.637990   -5.077520   -0.880057
     26          6           0       -1.790670   -3.102933    0.538577
     27          6           0       -0.359193   -0.655069    0.502015
     28          1           0        1.880478   -0.793441   -1.042576
     29          1           0        2.704099   -2.755454   -2.269745
     30          6           0       -1.556582   -0.784517    1.193593
     31          6           0       -2.270879   -2.008677    1.213643
     32          1           0       -3.201073   -2.071979    1.776473
     33          8           0        2.028589   -0.303220    1.877922
     34          1           0        2.865932   -0.064454    2.304065
     35          8           0       -2.028589    0.303220    1.877922
     36          1           0       -2.865932    0.064454    2.304065
 ---------------------------------------------------------------------
 Rotational constants (GHZ):           0.4856036           0.2198879           0.2015642
 Standard basis: 6-31G(d) (6D, 7F)
 There are   179 symmetry adapted cartesian basis functions of A   symmetry.
 There are   179 symmetry adapted cartesian basis functions of B   symmetry.
 There are   179 symmetry adapted basis functions of A   symmetry.
 There are   179 symmetry adapted basis functions of B   symmetry.
   358 basis functions,   672 primitive gaussians,   358 cartesian basis functions
    75 alpha electrons       75 beta electrons
       nuclear repulsion energy      1672.8789619420 Hartrees.
 NAtoms=   36 NActive=   36 NUniq=   18 SFac= 4.00D+00 NAtFMM=   60 NAOKFM=F Big=F
 Integral buffers will be    131072 words long.
 Regular integral format.
 Two-electron integral symmetry is turned on.
 One-electron integrals computed using PRISM.
 NBasis=   358 RedAO= T EigKep=  2.32D-04  NBF=   179   179
 NBsUse=   358 1.00D-06 EigRej= -1.00D+00 NBFU=   179   179
 ExpMin= 1.61D-01 ExpMax= 5.48D+03 ExpMxC= 8.25D+02 IAcc=3 IRadAn=         5 AccDes= 0.00D+00
 Harris functional with IExCor=  402 and IRadAn=       5 diagonalized for initial guess.
 HarFok:  IExCor=  402 AccDes= 0.00D+00 IRadAn=         5 IDoV= 1 UseB2=F ITyADJ=14
 ICtDFT=  3500011 ScaDFX=  1.000000  1.000000  1.000000  1.000000
 FoFCou: FMM=F IPFlag=           0 FMFlag=      100000 FMFlg1=           0
         NFxFlg=           0 DoJE=T BraDBF=F KetDBF=T FulRan=T
         wScrn=  0.000000 ICntrl=       500 IOpCl=  0 I1Cent=   200000004 NGrid=           0
         NMat0=    1 NMatS0=      1 NMatT0=    0 NMatD0=    1 NMtDS0=    0 NMtDT0=    0
 Petite list used in FoFCou.
 Initial guess orbital symmetries:
       Occupied  (B) (A) (B) (A) (B) (A) (B) (A) (A) (B) (B) (A)
                 (B) (A) (B) (A) (A) (B) (A) (B) (A) (B) (A) (B)
                 (A) (B) (A) (B) (A) (B) (A) (B) (A) (B) (A) (B)
                 (B) (A) (A) (B) (B) (A) (A) (B) (A) (B) (A) (B)
                 (A) (B) (A) (B) (B) (A) (A) (B) (A) (A) (B) (B)
                 (A) (B) (A) (A) (B) (B) (A) (B) (A) (A) (B) (A)
                 (B) (A) (B)
       Virtual   (A) (B) (A) (B) (A) (B) (A) (B) (B) (A) (B) (A)
                 (B) (A) (A) (B) (B) (A) (B) (A) (B) (A) (A) (B)
                 (B) (B) (A) (A) (B) (A) (B) (B) (A) (A) (B) (A)
                 (B) (A) (B) (A) (B) (A) (B) (B) (A) (B) (A) (A)
                 (B) (A) (B) (A) (A) (B) (A) (B) (B) (B) (A) (A)
                 (A) (B) (B) (A) (A) (B) (A) (B) (A) (A) (B) (B)
                 (A) (B) (A) (B) (A) (B) (A) (B) (A) (B) (B) (A)
                 (B) (B) (A) (A) (B) (A) (B) (A) (B) (A) (B) (A)
                 (B) (B) (A) (B) (A) (B) (A) (B) (A) (B) (A) (A)
                 (B) (B) (A) (A) (B) (B) (A) (A) (B) (A) (B) (A)
                 (B) (B) (A) (A) (B) (A) (B) (A) (A) (B) (A) (B)
                 (B) (B) (A) (A) (B) (A) (B) (A) (B) (B) (A) (A)
                 (B) (B) (A) (A) (A) (B) (B) (A) (B) (A) (B) (A)
                 (B) (B) (A) (B) (A) (A) (B) (A) (B) (A) (B) (A)
                 (A) (B) (B) (A) (A) (B) (A) (B) (B) (A) (B) (A)
                 (A) (B) (B) (A) (B) (A) (B) (A) (A) (B) (A) (B)
                 (A) (B) (B) (A) (A) (B) (B) (A) (B) (A) (A) (B)
                 (A) (B) (A) (B) (A) (B) (A) (A) (B) (A) (B) (B)
                 (B) (A) (B) (A) (B) (A) (B) (A) (A) (B) (A) (A)
                 (B) (B) (B) (A) (B) (A) (B) (A) (A) (B) (B) (A)
                 (A) (B) (B) (A) (B) (A) (B) (A) (B) (A) (B) (A)
                 (B) (A) (B) (A) (B) (A) (B) (A) (B) (A) (B) (A)
                 (B) (A) (B) (A) (B) (B) (A) (A) (B) (A) (B) (A)
                 (B) (A) (B) (A) (B) (A) (B)
 The electronic state of the initial guess is 1-A.
 Requested convergence on RMS density matrix=1.00D-08 within 128 cycles.
 Requested convergence on MAX density matrix=1.00D-06.
 Requested convergence on             energy=1.00D-06.
 No special actions if energy rises.
 Integral accuracy reduced to 1.0D-05 until final iterations.
 Initial convergence to 1.0D-05 achieved.  Increase integral accuracy.
 SCF Done:  E(RB3LYP) =  -921.015117359     A.U. after   14 cycles
            NFock= 14  Conv=0.50D-08     -V/T= 2.0095
 DoSCS=F DFT=T ScalE2(SS,OS)=  1.000000  1.000000
 ExpMin= 1.61D-01 ExpMax= 5.48D+03 ExpMxC= 8.25D+02 IAcc=3 IRadAn=         5 AccDes= 0.00D+00
 HarFok:  IExCor=  205 AccDes= 0.00D+00 IRadAn=         5 IDoV=-2 UseB2=F ITyADJ=14
 ICtDFT= 12500011 ScaDFX=  1.000000  1.000000  1.000000  1.000000
 GSVD:  LWork=        -660 too small for GESVD, short by        2750 words or        2750 for optimal perf.
 Range of M.O.s used for correlation:    23   358
 NBasis=   358 NAE=    75 NBE=    75 NFC=    22 NFV=     0
 NROrb=    336 NOA=    53 NOB=    53 NVA=   283 NVB=   283
 Orbital symmetries:
       Occupied  (B) (A) (B) (A) (A) (B) (A) (B) (B) (A) (A) (B)
                 (A) (B) (B) (A) (A) (B) (B) (A) (B) (A) (A) (B)
                 (A) (B) (A) (B) (A) (B) (A) (B) (A) (B) (A) (B)
                 (A) (B) (A) (B) (A) (B) (A) (B) (A) (B) (A) (B)
                 (A) (B) (A) (B) (A) (B) (A) (B) (A) (B) (A) (A)
                 (B) (B) (A) (B) (A) (B) (A) (B) (A) (A) (B) (A)
                 (B) (A) (B)
       Virtual   (A) (B) (A) (B) (A) (B) (A) (B) (B) (A) (A) (B)
                 (B) (A) (B) (A) (B) (A) (B) (A) (A) (B) (A) (B)
                 (B) (A) (B) (A) (B) (A) (B) (B) (A) (B) (A) (A)
                 (B) (A) (B) (A) (B) (A) (B) (A) (B) (A) (B) (B)
                 (A) (A) (B) (A) (B) (A) (A) (B) (B) (B) (A) (A)
                 (A) (B) (B) (A) (B) (A) (A) (A) (B) (B) (A) (A)
                 (B) (B) (A) (A) (B) (B) (B) (A) (A) (B) (B) (A)
                 (B) (B) (A) (B) (A) (A) (B) (A) (B) (A) (B) (A)
                 (B) (A) (B) (B) (A) (B) (A) (A) (B) (B) (A) (A)
                 (B) (B) (A) (A) (B) (B) (A) (B) (A) (A) (B) (A)
                 (B) (B) (A) (A) (B) (A) (B) (A) (B) (A) (B) (A)
                 (B) (B) (A) (A) (B) (A) (B) (A) (B) (A) (B) (B)
                 (A) (A) (B) (A) (B) (A) (A) (B) (B) (B) (A) (B)
                 (A) (B) (A) (B) (A) (A) (B) (A) (B) (A) (A) (A)
                 (B) (B) (B) (A) (B) (A) (A) (B) (B) (A) (B) (A)
                 (B) (A) (A) (B) (B) (A) (A) (B) (A) (B) (A) (B)
                 (A) (B) (B) (A) (B) (A) (B) (A) (A) (B) (A) (B)
                 (B) (A) (A) (B) (A) (B) (A) (A) (B) (B) (A) (B)
                 (B) (A) (B) (A) (B) (A) (B) (A) (A) (B) (B) (A)
                 (A) (B) (B) (A) (B) (A) (B) (A) (A) (B) (B) (A)
                 (A) (B) (B) (A) (B) (A) (B) (A) (B) (B) (A) (A)
                 (B) (A) (B) (B) (A) (A) (B) (A) (B) (A) (B) (B)
                 (A) (A) (B) (A) (B) (B) (A) (A) (B) (A) (B) (A)
                 (B) (A) (B) (A) (B) (A) (B)
    64 initial guesses have been made.
 Convergence on wavefunction:    0.001000000000000
 Iteration     1 Dimension    64 NMult     0 NNew     64
 CISAX will form    64 AO SS matrices at one time.
 New state      2 was old state      3
 New state      3 was old state      4
 New state      4 was old state      2
 New state      7 was old state      9
 New state      8 was old state      7
 New state      9 was old state     11
 New state     10 was old state     12
 New state     11 was old state     14
 New state     12 was old state     19
 New state     14 was old state     15
 New state     15 was old state     16
 New state     16 was old state     20
 Iteration     2 Dimension    96 NMult    64 NNew     32
 New state      3 was old state      4
 New state      4 was old state      3
 New state     14 was old state     15
 New state     15 was old state     14
 Iteration     3 Dimension   128 NMult    96 NNew     32
 New state     14 was old state     15
 New state     15 was old state     14
 Iteration     4 Dimension   160 NMult   128 NNew     32
 Iteration     5 Dimension   178 NMult   160 NNew     18
 Iteration     6 Dimension   184 NMult   178 NNew      6
 ***********************************************************************
 Excited states from <AA,BB:AA,BB> singles matrix:
 ***********************************************************************
 
 Ground to excited state transition densities written to RWF  633
 Ground to excited state transition electric dipole moments (Au):
       state          X           Y           Z        Dip. S.      Osc.
         1         0.4745      1.0616      0.0000      1.3522      0.1236
         2        -0.0000      0.0000      0.0275      0.0008      0.0001
         3        -0.0000      0.0000     -0.3202      0.1026      0.0103
         4        -0.4801     -0.4959      0.0000      0.4764      0.0493
         5        -0.1716     -0.5902      0.0000      0.3778      0.0413
         6         0.0000      0.0000      0.0163      0.0003      0.0000
         7        -0.0000      0.0000      0.2149      0.0462      0.0054
         8         0.3689     -0.0880      0.0000      0.1439      0.0170
         9         0.0000     -0.0000     -0.1279      0.0164      0.0020
        10        -0.2661      0.3391      0.0000      0.1858      0.0225
        11        -0.2702      0.4369      0.0000      0.2639      0.0347
        12         0.0000     -0.0000      0.7593      0.5766      0.0786
        13         0.0196     -0.9259     -0.0000      0.8576      0.1171
        14        -0.8840      0.6527      0.0000      1.2074      0.1700
        15         0.0000     -0.0000     -0.1385      0.0192      0.0027
        16         0.0000     -0.0000      0.4165      0.1735      0.0245
 Ground to excited state transition velocity dipole moments (Au):
       state          X           Y           Z        Dip. S.      Osc.
         1        -0.0670     -0.1562     -0.0000      0.0289      0.1404
         2        -0.0000     -0.0000     -0.0081      0.0001      0.0003
         3         0.0000     -0.0000      0.0425      0.0018      0.0079
         4         0.0740      0.0918     -0.0000      0.0139      0.0598
         5         0.0327      0.1044     -0.0000      0.0120      0.0486
         6         0.0000     -0.0000      0.0003      0.0000      0.0000
         7         0.0000     -0.0000     -0.0412      0.0017      0.0064
         8        -0.0671      0.0089     -0.0000      0.0046      0.0173
         9         0.0000     -0.0000      0.0263      0.0007      0.0026
        10         0.0401     -0.0552     -0.0000      0.0046      0.0171
        11         0.0459     -0.0818     -0.0000      0.0088      0.0297
        12         0.0000      0.0000     -0.1489      0.0222      0.0723
        13        -0.0084      0.1929      0.0000      0.0373      0.1214
        14         0.1842     -0.1340     -0.0000      0.0519      0.1638
        15        -0.0000      0.0000      0.0305      0.0009      0.0029
        16        -0.0000      0.0000     -0.0934      0.0087      0.0274
 Ground to excited state transition magnetic dipole moments (Au):
       state          X           Y           Z
         1        -0.0266     -0.0706      0.0000
         2        -0.0000      0.0000      0.1200
         3         0.0000     -0.0000     -0.8256
         4         0.2854     -0.1929     -0.0000
         5        -0.1547      0.0440      0.0000
         6         0.0000      0.0000      0.0016
         7         0.0000      0.0000      0.4243
         8        -0.3073      0.0938      0.0000
         9         0.0000      0.0000     -0.3467
        10         0.2129     -0.0936      0.0000
        11         0.5412     -0.1642      0.0000
        12        -0.0000      0.0000      1.2318
        13        -0.7122      0.3432     -0.0000
        14         0.7602     -0.1556      0.0000
        15        -0.0000      0.0000     -0.2016
        16        -0.0000      0.0000      0.4560
 Ground to excited state transition velocity quadrupole moments (Au):
       state          XX          YY          ZZ          XY          XZ          YZ
         1         0.0000     -0.0000      0.0000     -0.0000     -0.1968      0.1020
         2        -0.0263      0.0208      0.0019     -0.0003     -0.0000     -0.0000
         3         0.1368      0.7773     -0.0121      0.5390     -0.0000      0.0000
         4        -0.0000      0.0000      0.0000     -0.0000      0.0590      0.0347
         5        -0.0000      0.0000     -0.0000     -0.0000      0.0340     -0.1463
         6        -0.0708      0.6196     -0.0137      0.1245     -0.0000      0.0000
         7        -0.0521      0.0682     -0.0076     -0.1585      0.0000      0.0000
         8        -0.0000      0.0000     -0.0000      0.0000     -0.0267     -0.1635
         9         0.0375     -0.1617     -0.0063      0.0646      0.0000     -0.0000
        10        -0.0000      0.0000      0.0000     -0.0000      0.0297      0.2830
        11        -0.0000     -0.0000      0.0000     -0.0000     -0.0727      0.2463
        12        -0.1960      1.0887      0.0360     -0.5741      0.0000     -0.0000
        13         0.0000     -0.0000     -0.0000      0.0000      0.4250     -0.2430
        14        -0.0000      0.0000     -0.0000      0.0000      0.0259      0.7978
        15         0.0820      0.1603      0.0163      0.3219     -0.0000     -0.0000
        16        -0.1361      0.7706     -0.0935     -0.2672     -0.0000     -0.0000
 <0|del|b> * <b|rxdel|0> + <0|del|b> * <b|delr+rdel|0>
 Rotatory Strengths (R) in cgs (10**-40 erg-esu-cm/Gauss)
       state          XX          YY          ZZ    R(velocity)    E-M Angle
         1       -50.8074    -13.0121    129.8492     22.0099        2.55
         2        -2.3957     -2.4075      0.0000     -1.6011       90.00
         3       -28.4441   -135.4294     -0.0000    -54.6245       90.00
         4       -52.7307     53.9924     14.2597      5.1738       85.19
         5         2.2336    -21.2016     16.9589     -0.6697       91.52
         6         0.0790     -0.0770      0.0000      0.0007       90.00
         7       -21.9639    -48.1679     -0.0000    -23.3773       90.00
         8         2.1463     63.2115     20.4918     28.6165        9.42
         9       -14.5453    -21.2100      0.0000    -11.9184       90.00
        10        13.2755     38.7422      1.4043     17.8073       30.27
        11        13.4121     64.7956     58.9974     45.7350       43.83
        12      -169.4137   -465.1710      0.0000   -211.5282       90.00
        13       -27.2469     13.9056    262.7058     83.1215       61.77
        14        40.7023    480.4812     17.4842    179.5559       24.45
        15         6.1368    -26.7044     -0.0000     -6.8559       90.00
        16       -29.3866   -112.5515     -0.0000    -47.3127       90.00
 1/2[<0|r|b>*<b|rxdel|0> + (<0|rxdel|b>*<b|r|0>)*]
 Rotatory Strengths (R) in cgs (10**-40 erg-esu-cm/Gauss)
       state          XX          YY          ZZ     R(length)
         1         8.9384     52.9831     -0.0000     20.6405
         2        -0.0000     -0.0000     -2.3379     -0.7793
         3         0.0000      0.0000   -186.9715    -62.3238
         4        96.8921    -67.6434      0.0000      9.7496
         5       -18.7714     18.3511     -0.0000     -0.1401
         6        -0.0000     -0.0000     -0.0185     -0.0062
         7         0.0000     -0.0000    -64.4786    -21.4929
         8        80.1659      5.8349     -0.0000     28.6669
         9        -0.0000      0.0000    -31.3547    -10.4516
        10        40.0658     22.4528     -0.0000     20.8395
        11       103.3987     50.7258     -0.0000     51.3748
        12         0.0000      0.0000   -661.4589   -220.4863
        13         9.8901    224.7088     -0.0000     78.1996
        14       475.2386     71.8153     -0.0000    182.3513
        15         0.0000      0.0000    -19.7500     -6.5833
        16         0.0000      0.0000   -134.3028    -44.7676
  1/2[<0|del|b>*<b|r|0> + (<0|r|b>*<b|del|0>)*] (Au)
       state          X           Y           Z        Dip. S.   Osc.(frdel)
         1        -0.0318     -0.1658     -0.0000      0.1976      0.1317
         2         0.0000     -0.0000     -0.0002      0.0002      0.0001
         3        -0.0000     -0.0000     -0.0136      0.0136      0.0091
         4        -0.0355     -0.0456     -0.0000      0.0811      0.0541
         5        -0.0056     -0.0616     -0.0000      0.0672      0.0448
         6         0.0000     -0.0000      0.0000     -0.0000     -0.0000
         7        -0.0000     -0.0000     -0.0089      0.0089      0.0059
         8        -0.0248     -0.0008     -0.0000      0.0256      0.0170
         9         0.0000      0.0000     -0.0034      0.0034      0.0022
        10        -0.0107     -0.0187     -0.0000      0.0294      0.0196
        11        -0.0124     -0.0357     -0.0000      0.0481      0.0321
        12         0.0000     -0.0000     -0.1131      0.1131      0.0754
        13        -0.0002     -0.1786     -0.0000      0.1788      0.1192
        14        -0.1629     -0.0874     -0.0000      0.2503      0.1669
        15        -0.0000     -0.0000     -0.0042      0.0042      0.0028
        16        -0.0000     -0.0000     -0.0389      0.0389      0.0259

 Excitation energies and oscillator strengths:
 
 Excited State   1:      Singlet-B      3.7322 eV  332.20 nm  f=0.1236  <S**2>=0.000
      74 -> 77         0.12072
      75 -> 76         0.68828
 This state for optimization and/or second-order correction.
 Total Energy, E(TD-HF/TD-DFT) =  -920.877961346    
 Copying the excited state density for this state as the 1-particle RhoCI density.
 
 Excited State   2:      Singlet-A      3.8842 eV  319.20 nm  f=0.0001  <S**2>=0.000
      74 -> 76         0.51254
      75 -> 77         0.48254
 
 Excited State   3:      Singlet-A      4.1183 eV  301.06 nm  f=0.0103  <S**2>=0.000
      72 -> 76        -0.12324
      72 -> 78        -0.12062
      73 -> 79        -0.10656
      74 -> 76        -0.43696
      75 -> 77         0.48047
      75 -> 79         0.12522
 
 Excited State   4:      Singlet-B      4.2205 eV  293.77 nm  f=0.0493  <S**2>=0.000
      72 -> 77         0.10848
      73 -> 76        -0.14256
      74 -> 77         0.61673
      74 -> 79         0.10226
      75 -> 78         0.23089
 
 Excited State   5:      Singlet-B      4.4652 eV  277.66 nm  f=0.0413  <S**2>=0.000
      72 -> 77        -0.14951
      73 -> 76         0.49278
      74 -> 77         0.28144
      74 -> 79        -0.13625
      75 -> 76        -0.10170
      75 -> 78        -0.34870
 
 Excited State   6:      Singlet-A      4.4913 eV  276.06 nm  f=0.0000  <S**2>=0.000
      72 -> 76         0.48426
      73 -> 77        -0.18729
      74 -> 76        -0.17022
      74 -> 78        -0.22325
      75 -> 77         0.13727
      75 -> 79        -0.35744
 
 Excited State   7:      Singlet-A      4.7939 eV  258.63 nm  f=0.0054  <S**2>=0.000
      72 -> 76         0.40594
      73 -> 77         0.53052
      75 -> 79         0.21659
 
 Excited State   8:      Singlet-B      4.8118 eV  257.67 nm  f=0.0170  <S**2>=0.000
      72 -> 77         0.50853
      73 -> 76         0.39127
      75 -> 78         0.27243
 
 Excited State   9:      Singlet-A      4.9014 eV  252.96 nm  f=0.0020  <S**2>=0.000
      73 -> 77         0.16151
      74 -> 78         0.52468
      75 -> 79        -0.44136
 
 Excited State  10:      Singlet-B      4.9337 eV  251.30 nm  f=0.0225  <S**2>=0.000
      72 -> 77         0.27843
      74 -> 79         0.52000
      75 -> 78        -0.37948
 
 Excited State  11:      Singlet-B      5.3665 eV  231.03 nm  f=0.0347  <S**2>=0.000
      71 -> 76         0.46889
      75 -> 80         0.48807
 
 Excited State  12:      Singlet-A      5.5629 eV  222.88 nm  f=0.0786  <S**2>=0.000
      70 -> 76         0.29074
      71 -> 77         0.36455
      72 -> 76         0.11655
      73 -> 77        -0.18386
      74 -> 78         0.17763
      74 -> 80        -0.27999
      75 -> 79         0.11977
      75 -> 81        -0.31539
 
 Excited State  13:      Singlet-B      5.5722 eV  222.50 nm  f=0.1171  <S**2>=0.000
      71 -> 76         0.48889
      74 -> 79         0.10036
      75 -> 80        -0.44549
 
 Excited State  14:      Singlet-B      5.7484 eV  215.69 nm  f=0.1700  <S**2>=0.000
      72 -> 77         0.14401
      72 -> 79        -0.41218
      73 -> 76        -0.11544
      73 -> 78         0.48840
      74 -> 79        -0.16623
      75 -> 78        -0.13002
 
 Excited State  15:      Singlet-A      5.7524 eV  215.53 nm  f=0.0027  <S**2>=0.000
      72 -> 78         0.52135
      73 -> 79        -0.25059
      74 -> 80        -0.33006
      75 -> 81         0.21118
 
 Excited State  16:      Singlet-A      5.7737 eV  214.74 nm  f=0.0245  <S**2>=0.000
      70 -> 76         0.15716
      71 -> 77        -0.20807
      72 -> 78         0.26662
      73 -> 79        -0.26142
      74 -> 80         0.40962
      75 -> 81        -0.30993
 SavETr:  write IOETrn=   770 NScale= 10 NData=  16 NLR=1 NState=   16 LETran=     298.

 **********************************************************************

            Population analysis using the SCF Density.

 **********************************************************************

 Orbital symmetries:
       Occupied  (B) (A) (B) (A) (A) (B) (A) (B) (B) (A) (A) (B)
                 (A) (B) (B) (A) (A) (B) (B) (A) (B) (A) (A) (B)
                 (A) (B) (A) (B) (A) (B) (A) (B) (A) (B) (A) (B)
                 (A) (B) (A) (B) (A) (B) (A) (B) (A) (B) (A) (B)
                 (A) (B) (A) (B) (A) (B) (A) (B) (A) (B) (A) (A)
                 (B) (B) (A) (B) (A) (B) (A) (B) (A) (A) (B) (A)
                 (B) (A) (B)
       Virtual   (A) (B) (A) (B) (A) (B) (A) (B) (B) (A) (A) (B)
                 (B) (A) (B) (A) (B) (A) (B) (A) (A) (B) (A) (B)
                 (B) (A) (B) (A) (B) (A) (B) (B) (A) (B) (A) (A)
                 (B) (A) (B) (A) (B) (A) (B) (A) (B) (A) (B) (B)
                 (A) (A) (B) (A) (B) (A) (A) (B) (B) (B) (A) (A)
                 (A) (B) (B) (A) (B) (A) (A) (A) (B) (B) (A) (A)
                 (B) (B) (A) (A) (B) (B) (B) (A) (A) (B) (B) (A)
                 (B) (B) (A) (B) (A) (A) (B) (A) (B) (A) (B) (A)
                 (B) (A) (B) (B) (A) (B) (A) (A) (B) (B) (A) (A)
                 (B) (B) (A) (A) (B) (B) (A) (B) (A) (A) (B) (A)
                 (B) (B) (A) (A) (B) (A) (B) (A) (B) (A) (B) (A)
                 (B) (B) (A) (A) (B) (A) (B) (A) (B) (A) (B) (B)
                 (A) (A) (B) (A) (B) (A) (A) (B) (B) (B) (A) (B)
                 (A) (B) (A) (B) (A) (A) (B) (A) (B) (A) (A) (A)
                 (B) (B) (B) (A) (B) (A) (A) (B) (B) (A) (B) (A)
                 (B) (A) (A) (B) (B) (A) (A) (B) (A) (B) (A) (B)
                 (A) (B) (B) (A) (B) (A) (B) (A) (A) (B) (A) (B)
                 (B) (A) (A) (B) (A) (B) (A) (A) (B) (B) (A) (B)
                 (B) (A) (B) (A) (B) (A) (B) (A) (A) (B) (B) (A)
                 (A) (B) (B) (A) (B) (A) (B) (A) (A) (B) (B) (A)
                 (A) (B) (B) (A) (B) (A) (B) (A) (B) (B) (A) (A)
                 (B) (A) (B) (B) (A) (A) (B) (A) (B) (A) (B) (B)
                 (A) (A) (B) (A) (B) (B) (A) (A) (B) (A) (B) (A)
                 (B) (A) (B) (A) (B) (A) (B)
 The electronic state is 1-A.
 Alpha  occ. eigenvalues --  -19.17496 -19.17496 -10.24601 -10.24601 -10.19223
 Alpha  occ. eigenvalues --  -10.19223 -10.19139 -10.19139 -10.19073 -10.19073
 Alpha  occ. eigenvalues --  -10.18781 -10.18780 -10.18779 -10.18752 -10.18244
 Alpha  occ. eigenvalues --  -10.18244 -10.18106 -10.18106 -10.17986 -10.17986
 Alpha  occ. eigenvalues --  -10.17655 -10.17655  -1.05666  -1.05523  -0.86961
 Alpha  occ. eigenvalues --   -0.85900  -0.81369  -0.80826  -0.78620  -0.75066
 Alpha  occ. eigenvalues --   -0.72927  -0.72916  -0.71931  -0.70280  -0.62945
 Alpha  occ. eigenvalues --   -0.62340  -0.61225  -0.61032  -0.59750  -0.56732
 Alpha  occ. eigenvalues --   -0.54549  -0.54419  -0.51509  -0.49994  -0.49160
 Alpha  occ. eigenvalues --   -0.48737  -0.46381  -0.46265  -0.44143  -0.43003
 Alpha  occ. eigenvalues --   -0.42382  -0.42195  -0.41545  -0.41495  -0.41225
 Alpha  occ. eigenvalues --   -0.39734  -0.39438  -0.39314  -0.38672  -0.36592
 Alpha  occ. eigenvalues --   -0.36063  -0.35722  -0.35178  -0.34150  -0.33918
 Alpha  occ. eigenvalues --   -0.33211  -0.31284  -0.30199  -0.29959  -0.27546
 Alpha  occ. eigenvalues --   -0.26109  -0.22638  -0.22602  -0.20257  -0.19214
 Alpha virt. eigenvalues --   -0.03517  -0.02517   0.00389   0.00813   0.03439
 Alpha virt. eigenvalues --    0.04648   0.07034   0.07049   0.10155   0.10493
 Alpha virt. eigenvalues --    0.11135   0.11332   0.11931   0.11997   0.14399
 Alpha virt. eigenvalues --    0.15440   0.17521   0.17562   0.18760   0.19005
 Alpha virt. eigenvalues --    0.19946   0.19989   0.20569   0.21290   0.22686
 Alpha virt. eigenvalues --    0.24183   0.26338   0.27529   0.27833   0.29443
 Alpha virt. eigenvalues --    0.30951   0.31709   0.32313   0.33029   0.33385
 Alpha virt. eigenvalues --    0.34631   0.36571   0.36816   0.37269   0.39786
 Alpha virt. eigenvalues --    0.40968   0.47142   0.49368   0.49595   0.50241
 Alpha virt. eigenvalues --    0.51343   0.52173   0.52395   0.52436   0.53738
 Alpha virt. eigenvalues --    0.53944   0.54091   0.54929   0.55427   0.55705
 Alpha virt. eigenvalues --    0.55943   0.56661   0.57145   0.57208   0.59351
 Alpha virt. eigenvalues --    0.59832   0.59935   0.60635   0.60786   0.61134
 Alpha virt. eigenvalues --    0.61750   0.61924   0.62090   0.62170   0.62940
 Alpha virt. eigenvalues --    0.63013   0.63981   0.64174   0.64677   0.65505
 Alpha virt. eigenvalues --    0.66762   0.66981   0.67651   0.68572   0.68588
 Alpha virt. eigenvalues --    0.70759   0.72541   0.74898   0.75610   0.76469
 Alpha virt. eigenvalues --    0.79758   0.80302   0.81725   0.82294   0.83236
 Alpha virt. eigenvalues --    0.83772   0.84428   0.84877   0.85282   0.85536
 Alpha virt. eigenvalues --    0.86319   0.86728   0.87238   0.87432   0.88558
 Alpha virt. eigenvalues --    0.88598   0.90033   0.90862   0.91404   0.92133
 Alpha virt. eigenvalues --    0.94464   0.95066   0.95925   0.97248   0.98389
 Alpha virt. eigenvalues --    0.99123   1.00334   1.01818   1.03439   1.03887
 Alpha virt. eigenvalues --    1.04451   1.04926   1.06275   1.07222   1.08170
 Alpha virt. eigenvalues --    1.08923   1.10224   1.12348   1.13973   1.15022
 Alpha virt. eigenvalues --    1.15206   1.18669   1.20586   1.20681   1.22329
 Alpha virt. eigenvalues --    1.25297   1.25399   1.25884   1.26700   1.27034
 Alpha virt. eigenvalues --    1.28684   1.29313   1.33014   1.33123   1.37660
 Alpha virt. eigenvalues --    1.38040   1.40500   1.41263   1.41949   1.42234
 Alpha virt. eigenvalues --    1.42822   1.45219   1.46147   1.46443   1.47405
 Alpha virt. eigenvalues --    1.47819   1.48051   1.48197   1.48591   1.50395
 Alpha virt. eigenvalues --    1.50512   1.51152   1.51462   1.52222   1.54144
 Alpha virt. eigenvalues --    1.61001   1.65969   1.67911   1.70964   1.75202
 Alpha virt. eigenvalues --    1.75408   1.76210   1.77291   1.78049   1.78863
 Alpha virt. eigenvalues --    1.79593   1.79676   1.82526   1.84082   1.84993
 Alpha virt. eigenvalues --    1.86126   1.87415   1.89004   1.90809   1.91019
 Alpha virt. eigenvalues --    1.92227   1.92586   1.93495   1.93819   1.94979
 Alpha virt. eigenvalues --    1.95984   1.97144   1.98003   1.99716   2.01332
 Alpha virt. eigenvalues --    2.02385   2.03581   2.04878   2.05088   2.06584
 Alpha virt. eigenvalues --    2.07183   2.07887   2.08347   2.14688   2.15327
 Alpha virt. eigenvalues --    2.17222   2.17647   2.20516   2.21264   2.22308
 Alpha virt. eigenvalues --    2.22596   2.25810   2.26769   2.28623   2.29555
 Alpha virt. eigenvalues --    2.30720   2.31413   2.32760   2.34124   2.34415
 Alpha virt. eigenvalues --    2.35797   2.35874   2.36376   2.36465   2.37490
 Alpha virt. eigenvalues --    2.39151   2.40887   2.46963   2.48579   2.50482
 Alpha virt. eigenvalues --    2.53856   2.58034   2.58160   2.60238   2.61642
 Alpha virt. eigenvalues --    2.62075   2.63719   2.64562   2.64930   2.65596
 Alpha virt. eigenvalues --    2.66519   2.67545   2.68416   2.69886   2.75220
 Alpha virt. eigenvalues --    2.75892   2.77534   2.79908   2.80784   2.82874
 Alpha virt. eigenvalues --    2.84982   2.87968   2.89472   2.89482   2.91058
 Alpha virt. eigenvalues --    2.91981   2.97210   3.02552   3.04957   3.07988
 Alpha virt. eigenvalues --    3.15960   3.17670   3.37041   3.39342   3.47337
 Alpha virt. eigenvalues --    3.50737   3.97341   4.06688   4.09511   4.09898
 Alpha virt. eigenvalues --    4.10870   4.11536   4.14483   4.14989   4.16198
 Alpha virt. eigenvalues --    4.17288   4.23370   4.30062   4.30796   4.32835
 Alpha virt. eigenvalues --    4.40643   4.43579   4.44924   4.50742   4.61363
 Alpha virt. eigenvalues --    4.64632   4.84330   4.92461
          Condensed to atoms (all electrons):
               1          2          3          4          5          6
     1  C    4.903921   0.513591   0.001997  -0.038620  -0.019088   0.493320
     2  C    0.513591   5.146682   0.444238  -0.052138  -0.071110  -0.019560
     3  C    0.001997   0.444238   4.762461   0.445652  -0.023580  -0.039737
     4  C   -0.038620  -0.052138   0.445652   4.769228   0.447846  -0.004998
     5  C   -0.019088  -0.071110  -0.023580   0.447846   5.100245   0.518211
     6  C    0.493320  -0.019560  -0.039737  -0.004998   0.518211   4.909986
     7  H    0.356680  -0.037215   0.002685   0.001040   0.004392  -0.042587
     8  H   -0.047485   0.345955  -0.030826   0.005692   0.000448   0.004507
     9  C    0.008425  -0.094913   0.415246  -0.013057   0.015072  -0.000669
    10  C   -0.000758   0.016767  -0.018320   0.426303  -0.093366   0.008487
    11  H    0.004696   0.000490   0.004330  -0.043221   0.353717  -0.045817
    12  H   -0.041203   0.004175   0.001000   0.002793  -0.037445   0.356273
    13  C    0.000072  -0.001361  -0.055202   0.006170   0.009334  -0.000409
    14  C   -0.000360   0.013928   0.020204  -0.058666  -0.000907   0.000052
    15  H    0.000017  -0.000203   0.004247  -0.036514  -0.008083   0.000173
    16  H   -0.000000   0.000015   0.001189   0.002061  -0.000206   0.000004
    17  C    0.000000  -0.000000  -0.000000   0.000000  -0.000000  -0.000000
    18  C    0.000000   0.000001  -0.000002  -0.000000   0.000000  -0.000000
    19  C   -0.000001   0.000005  -0.000060   0.000001  -0.000000   0.000000
    20  C    0.000028   0.000171   0.000352  -0.000060  -0.000002  -0.000000
    21  C   -0.000001   0.000093   0.000171   0.000005   0.000001  -0.000000
    22  C   -0.000000  -0.000001   0.000028  -0.000001   0.000000   0.000000
    23  H   -0.000000  -0.000000   0.000000   0.000000  -0.000000  -0.000000
    24  H   -0.000000  -0.000000   0.000000   0.000000   0.000000   0.000000
    25  H   -0.000000  -0.000000  -0.000000   0.000000  -0.000000   0.000000
    26  C   -0.000000  -0.000034   0.000033   0.000000  -0.000000   0.000000
    27  C    0.000862  -0.024839  -0.049487   0.008886  -0.000087  -0.000008
    28  H    0.000002  -0.000018   0.000243  -0.000037  -0.000003   0.000000
    29  H   -0.000000  -0.000000  -0.000000   0.000000   0.000000   0.000000
    30  C    0.000059  -0.001819  -0.005854   0.000040  -0.000013  -0.000001
    31  C   -0.000014  -0.000541   0.000369   0.000007  -0.000000   0.000000
    32  H    0.000000   0.000006  -0.000003  -0.000000   0.000000  -0.000000
    33  O    0.000000  -0.000048   0.002373   0.000206   0.000000  -0.000000
    34  H   -0.000000   0.000006   0.000140  -0.000118  -0.000001   0.000000
    35  O   -0.000034   0.003744  -0.002800  -0.000326   0.000002   0.000001
    36  H    0.000003  -0.000023   0.000044   0.000006  -0.000000  -0.000000
               7          8          9         10         11         12
     1  C    0.356680  -0.047485   0.008425  -0.000758   0.004696  -0.041203
     2  C   -0.037215   0.345955  -0.094913   0.016767   0.000490   0.004175
     3  C    0.002685  -0.030826   0.415246  -0.018320   0.004330   0.001000
     4  C    0.001040   0.005692  -0.013057   0.426303  -0.043221   0.002793
     5  C    0.004392   0.000448   0.015072  -0.093366   0.353717  -0.037445
     6  C   -0.042587   0.004507  -0.000669   0.008487  -0.045817   0.356273
     7  H    0.600775  -0.005437  -0.000196   0.000009  -0.000196  -0.004840
     8  H   -0.005437   0.589397  -0.016642  -0.000185   0.000019  -0.000182
     9  C   -0.000196  -0.016642   5.316505  -0.067545  -0.000166   0.000013
    10  C    0.000009  -0.000185  -0.067545   5.146965  -0.008742  -0.000194
    11  H   -0.000196   0.000019  -0.000166  -0.008742   0.609070  -0.005475
    12  H   -0.004840  -0.000182   0.000013  -0.000194  -0.005475   0.600681
    13  C   -0.000001   0.000012  -0.043837   0.446890   0.000294   0.000004
    14  C    0.000003   0.000096   0.443087   0.013347   0.000007  -0.000000
    15  H   -0.000000   0.000002   0.000796   0.349300   0.006703  -0.000012
    16  H   -0.000000   0.000000   0.004008  -0.027856  -0.000012  -0.000000
    17  C    0.000000   0.000000  -0.000008   0.000000   0.000000   0.000000
    18  C    0.000000  -0.000003  -0.000087  -0.000000  -0.000000   0.000000
    19  C    0.000000  -0.000037   0.008886   0.000000   0.000000   0.000000
    20  C   -0.000000   0.000243  -0.049487   0.000033  -0.000000   0.000000
    21  C   -0.000000  -0.000018  -0.024839  -0.000034  -0.000000  -0.000000
    22  C   -0.000000   0.000002   0.000862  -0.000000  -0.000000  -0.000000
    23  H   -0.000000  -0.000000   0.000012  -0.000000   0.000000   0.000000
    24  H   -0.000000  -0.000000   0.000000  -0.000000  -0.000000   0.000000
    25  H   -0.000000   0.000000   0.000001  -0.000000   0.000000  -0.000000
    26  C   -0.000000  -0.000031  -0.000836   0.000000  -0.000000  -0.000000
    27  C   -0.000008   0.013770   0.250927  -0.000836   0.000001   0.000000
    28  H    0.000000  -0.000006   0.013770  -0.000031   0.000000  -0.000000
    29  H    0.000000   0.000000  -0.000008  -0.000000  -0.000000  -0.000000
    30  C    0.000001   0.004730  -0.075137   0.000028   0.000000   0.000000
    31  C   -0.000000   0.000689   0.008295  -0.000000   0.000000   0.000000
    32  H    0.000000   0.000005  -0.000168   0.000000  -0.000000   0.000000
    33  O   -0.000000  -0.000001  -0.059843   0.004815  -0.000000   0.000000
    34  H    0.000000   0.000000   0.007577   0.000876  -0.000000  -0.000000
    35  O   -0.000002  -0.001592   0.000270   0.000006   0.000000  -0.000000
    36  H   -0.000000   0.000052  -0.000277  -0.000000  -0.000000  -0.000000
              13         14         15         16         17         18
     1  C    0.000072  -0.000360   0.000017  -0.000000   0.000000   0.000000
     2  C   -0.001361   0.013928  -0.000203   0.000015  -0.000000   0.000001
     3  C   -0.055202   0.020204   0.004247   0.001189  -0.000000  -0.000002
     4  C    0.006170  -0.058666  -0.036514   0.002061   0.000000  -0.000000
     5  C    0.009334  -0.000907  -0.008083  -0.000206  -0.000000   0.000000
     6  C   -0.000409   0.000052   0.000173   0.000004  -0.000000  -0.000000
     7  H   -0.000001   0.000003  -0.000000  -0.000000   0.000000   0.000000
     8  H    0.000012   0.000096   0.000002   0.000000   0.000000  -0.000003
     9  C   -0.043837   0.443087   0.000796   0.004008  -0.000008  -0.000087
    10  C    0.446890   0.013347   0.349300  -0.027856   0.000000  -0.000000
    11  H    0.000294   0.000007   0.006703  -0.000012   0.000000  -0.000000
    12  H    0.000004  -0.000000  -0.000012  -0.000000   0.000000   0.000000
    13  C    5.186154   0.410604  -0.040036   0.338999   0.000000  -0.000000
    14  C    0.410604   4.700285   0.002883  -0.040758  -0.000001  -0.000013
    15  H   -0.040036   0.002883   0.595027  -0.005358  -0.000000  -0.000000
    16  H    0.338999  -0.040758  -0.005358   0.606677  -0.000000   0.000000
    17  C    0.000000  -0.000001  -0.000000  -0.000000   4.909986   0.518211
    18  C   -0.000000  -0.000013  -0.000000   0.000000   0.518211   5.100245
    19  C    0.000007   0.000040   0.000000  -0.000000  -0.004998   0.447846
    20  C    0.000369  -0.005854   0.000000  -0.000003  -0.039737  -0.023580
    21  C   -0.000541  -0.001819  -0.000000   0.000006  -0.019560  -0.071110
    22  C   -0.000014   0.000059  -0.000000   0.000000   0.493320  -0.019088
    23  H    0.000000   0.000000  -0.000000  -0.000000   0.000173  -0.008083
    24  H    0.000000   0.000000   0.000000   0.000000   0.356273  -0.037445
    25  H    0.000000   0.000000   0.000000  -0.000000  -0.045817   0.353717
    26  C   -0.000000   0.000028  -0.000000   0.000000   0.008487  -0.093366
    27  C    0.008295  -0.075137   0.000012  -0.000168  -0.000669   0.015072
    28  H    0.000689   0.004730  -0.000000   0.000005   0.004507   0.000448
    29  H   -0.000000   0.000001  -0.000000   0.000000  -0.042587   0.004392
    30  C    0.000034  -0.000198   0.000000  -0.000000   0.000052  -0.000907
    31  C    0.000005   0.000034   0.000000  -0.000000  -0.000409   0.009334
    32  H   -0.000000  -0.000000  -0.000000   0.000000   0.000004  -0.000206
    33  O   -0.064430   0.291880  -0.000057  -0.005226   0.000001   0.000002
    34  H   -0.006599  -0.032461  -0.000015   0.007863  -0.000000  -0.000000
    35  O   -0.000004  -0.000322   0.000000   0.000000  -0.000000   0.000000
    36  H   -0.000001  -0.000005   0.000000  -0.000000   0.000000  -0.000001
              19         20         21         22         23         24
     1  C   -0.000001   0.000028  -0.000001  -0.000000  -0.000000  -0.000000
     2  C    0.000005   0.000171   0.000093  -0.000001  -0.000000  -0.000000
     3  C   -0.000060   0.000352   0.000171   0.000028   0.000000   0.000000
     4  C    0.000001  -0.000060   0.000005  -0.000001   0.000000   0.000000
     5  C   -0.000000  -0.000002   0.000001   0.000000  -0.000000   0.000000
     6  C    0.000000  -0.000000  -0.000000   0.000000  -0.000000   0.000000
     7  H    0.000000  -0.000000  -0.000000  -0.000000  -0.000000  -0.000000
     8  H   -0.000037   0.000243  -0.000018   0.000002  -0.000000  -0.000000
     9  C    0.008886  -0.049487  -0.024839   0.000862   0.000012   0.000000
    10  C    0.000000   0.000033  -0.000034  -0.000000  -0.000000  -0.000000
    11  H    0.000000  -0.000000  -0.000000  -0.000000   0.000000  -0.000000
    12  H    0.000000   0.000000  -0.000000  -0.000000   0.000000   0.000000
    13  C    0.000007   0.000369  -0.000541  -0.000014   0.000000   0.000000
    14  C    0.000040  -0.005854  -0.001819   0.000059   0.000000   0.000000
    15  H    0.000000   0.000000  -0.000000  -0.000000  -0.000000   0.000000
    16  H   -0.000000  -0.000003   0.000006   0.000000  -0.000000   0.000000
    17  C   -0.004998  -0.039737  -0.019560   0.493320   0.000173   0.356273
    18  C    0.447846  -0.023580  -0.071110  -0.019088  -0.008083  -0.037445
    19  C    4.769228   0.445652  -0.052138  -0.038620  -0.036514   0.002793
    20  C    0.445652   4.762461   0.444238   0.001997   0.004247   0.001000
    21  C   -0.052138   0.444238   5.146682   0.513591  -0.000203   0.004175
    22  C   -0.038620   0.001997   0.513591   4.903921   0.000017  -0.041203
    23  H   -0.036514   0.004247  -0.000203   0.000017   0.595027  -0.000012
    24  H    0.002793   0.001000   0.004175  -0.041203  -0.000012   0.600681
    25  H   -0.043221   0.004330   0.000490   0.004696   0.006703  -0.005475
    26  C    0.426303  -0.018320   0.016767  -0.000758   0.349300  -0.000194
    27  C   -0.013057   0.415246  -0.094913   0.008425   0.000796   0.000013
    28  H    0.005692  -0.030826   0.345955  -0.047485   0.000002  -0.000182
    29  H    0.001040   0.002685  -0.037215   0.356680  -0.000000  -0.004840
    30  C   -0.058666   0.020204   0.013928  -0.000360   0.002883  -0.000000
    31  C    0.006170  -0.055202  -0.001361   0.000072  -0.040036   0.000004
    32  H    0.002061   0.001189   0.000015  -0.000000  -0.005358  -0.000000
    33  O   -0.000326  -0.002800   0.003744  -0.000034   0.000000  -0.000000
    34  H    0.000006   0.000044  -0.000023   0.000003   0.000000  -0.000000
    35  O    0.000206   0.002373  -0.000048   0.000000  -0.000057   0.000000
    36  H   -0.000118   0.000140   0.000006  -0.000000  -0.000015  -0.000000
              25         26         27         28         29         30
     1  C   -0.000000  -0.000000   0.000862   0.000002  -0.000000   0.000059
     2  C   -0.000000  -0.000034  -0.024839  -0.000018  -0.000000  -0.001819
     3  C   -0.000000   0.000033  -0.049487   0.000243  -0.000000  -0.005854
     4  C    0.000000   0.000000   0.008886  -0.000037   0.000000   0.000040
     5  C   -0.000000  -0.000000  -0.000087  -0.000003   0.000000  -0.000013
     6  C    0.000000   0.000000  -0.000008   0.000000   0.000000  -0.000001
     7  H   -0.000000  -0.000000  -0.000008   0.000000   0.000000   0.000001
     8  H    0.000000  -0.000031   0.013770  -0.000006   0.000000   0.004730
     9  C    0.000001  -0.000836   0.250927   0.013770  -0.000008  -0.075137
    10  C   -0.000000   0.000000  -0.000836  -0.000031  -0.000000   0.000028
    11  H    0.000000  -0.000000   0.000001   0.000000  -0.000000   0.000000
    12  H   -0.000000  -0.000000   0.000000  -0.000000  -0.000000   0.000000
    13  C    0.000000  -0.000000   0.008295   0.000689  -0.000000   0.000034
    14  C    0.000000   0.000028  -0.075137   0.004730   0.000001  -0.000198
    15  H    0.000000  -0.000000   0.000012  -0.000000  -0.000000   0.000000
    16  H   -0.000000   0.000000  -0.000168   0.000005   0.000000  -0.000000
    17  C   -0.045817   0.008487  -0.000669   0.004507  -0.042587   0.000052
    18  C    0.353717  -0.093366   0.015072   0.000448   0.004392  -0.000907
    19  C   -0.043221   0.426303  -0.013057   0.005692   0.001040  -0.058666
    20  C    0.004330  -0.018320   0.415246  -0.030826   0.002685   0.020204
    21  C    0.000490   0.016767  -0.094913   0.345955  -0.037215   0.013928
    22  C    0.004696  -0.000758   0.008425  -0.047485   0.356680  -0.000360
    23  H    0.006703   0.349300   0.000796   0.000002  -0.000000   0.002883
    24  H   -0.005475  -0.000194   0.000013  -0.000182  -0.004840  -0.000000
    25  H    0.609070  -0.008742  -0.000166   0.000019  -0.000196   0.000007
    26  C   -0.008742   5.146965  -0.067545  -0.000185   0.000009   0.013347
    27  C   -0.000166  -0.067545   5.316505  -0.016642  -0.000196   0.443087
    28  H    0.000019  -0.000185  -0.016642   0.589397  -0.005437   0.000096
    29  H   -0.000196   0.000009  -0.000196  -0.005437   0.600775   0.000003
    30  C    0.000007   0.013347   0.443087   0.000096   0.000003   4.700285
    31  C    0.000294   0.446890  -0.043837   0.000012  -0.000001   0.410604
    32  H   -0.000012  -0.027856   0.004008   0.000000  -0.000000  -0.040758
    33  O    0.000000   0.000006   0.000270  -0.001592  -0.000002  -0.000322
    34  H   -0.000000  -0.000000  -0.000277   0.000052  -0.000000  -0.000005
    35  O   -0.000000   0.004815  -0.059843  -0.000001  -0.000000   0.291880
    36  H   -0.000000   0.000876   0.007577   0.000000   0.000000  -0.032461
              31         32         33         34         35         36
     1  C   -0.000014   0.000000   0.000000  -0.000000  -0.000034   0.000003
     2  C   -0.000541   0.000006  -0.000048   0.000006   0.003744  -0.000023
     3  C    0.000369  -0.000003   0.002373   0.000140  -0.002800   0.000044
     4  C    0.000007  -0.000000   0.000206  -0.000118  -0.000326   0.000006
     5  C   -0.000000   0.000000   0.000000  -0.000001   0.000002  -0.000000
     6  C    0.000000  -0.000000  -0.000000   0.000000   0.000001  -0.000000
     7  H   -0.000000   0.000000  -0.000000   0.000000  -0.000002  -0.000000
     8  H    0.000689   0.000005  -0.000001   0.000000  -0.001592   0.000052
     9  C    0.008295  -0.000168  -0.059843   0.007577   0.000270  -0.000277
    10  C   -0.000000   0.000000   0.004815   0.000876   0.000006  -0.000000
    11  H    0.000000  -0.000000  -0.000000  -0.000000   0.000000  -0.000000
    12  H    0.000000   0.000000   0.000000  -0.000000  -0.000000  -0.000000
    13  C    0.000005  -0.000000  -0.064430  -0.006599  -0.000004  -0.000001
    14  C    0.000034  -0.000000   0.291880  -0.032461  -0.000322  -0.000005
    15  H    0.000000  -0.000000  -0.000057  -0.000015   0.000000   0.000000
    16  H   -0.000000   0.000000  -0.005226   0.007863   0.000000  -0.000000
    17  C   -0.000409   0.000004   0.000001  -0.000000  -0.000000   0.000000
    18  C    0.009334  -0.000206   0.000002  -0.000000   0.000000  -0.000001
    19  C    0.006170   0.002061  -0.000326   0.000006   0.000206  -0.000118
    20  C   -0.055202   0.001189  -0.002800   0.000044   0.002373   0.000140
    21  C   -0.001361   0.000015   0.003744  -0.000023  -0.000048   0.000006
    22  C    0.000072  -0.000000  -0.000034   0.000003   0.000000  -0.000000
    23  H   -0.040036  -0.005358   0.000000   0.000000  -0.000057  -0.000015
    24  H    0.000004  -0.000000  -0.000000  -0.000000   0.000000  -0.000000
    25  H    0.000294  -0.000012   0.000000  -0.000000  -0.000000  -0.000000
    26  C    0.446890  -0.027856   0.000006  -0.000000   0.004815   0.000876
    27  C   -0.043837   0.004008   0.000270  -0.000277  -0.059843   0.007577
    28  H    0.000012   0.000000  -0.001592   0.000052  -0.000001   0.000000
    29  H   -0.000001  -0.000000  -0.000002  -0.000000  -0.000000   0.000000
    30  C    0.410604  -0.040758  -0.000322  -0.000005   0.291880  -0.032461
    31  C    5.186154   0.338999  -0.000004  -0.000001  -0.064430  -0.006599
    32  H    0.338999   0.606677   0.000000  -0.000000  -0.005226   0.007863
    33  O   -0.000004   0.000000   8.228023   0.243772  -0.000043  -0.000001
    34  H   -0.000001  -0.000000   0.243772   0.372795  -0.000001   0.000000
    35  O   -0.064430  -0.005226  -0.000043  -0.000001   8.228023   0.243772
    36  H   -0.006599   0.007863  -0.000001   0.000000   0.243772   0.372795
 Mulliken charges:
               1
     1  C   -0.136108
     2  C   -0.186044
     3  C    0.118868
     4  C    0.131822
     5  C   -0.195377
     6  C   -0.137227
     7  H    0.124897
     8  H    0.136824
     9  C   -0.046037
    10  C   -0.195958
    11  H    0.124303
    12  H    0.124413
    13  C   -0.195497
    14  C    0.315234
    15  H    0.131119
    16  H    0.118761
    17  C   -0.137227
    18  C   -0.195377
    19  C    0.131822
    20  C    0.118868
    21  C   -0.186044
    22  C   -0.136108
    23  H    0.131119
    24  H    0.124413
    25  H    0.124303
    26  C   -0.195958
    27  C   -0.046037
    28  H    0.136824
    29  H    0.124897
    30  C    0.315234
    31  C   -0.195497
    32  H    0.118761
    33  O   -0.640365
    34  H    0.406369
    35  O   -0.640365
    36  H    0.406369
 Sum of Mulliken charges =  -0.00000
 Mulliken charges with hydrogens summed into heavy atoms:
               1
     1  C   -0.011211
     2  C   -0.049220
     3  C    0.118868
     4  C    0.131822
     5  C   -0.071073
     6  C   -0.012814
     9  C   -0.046037
    10  C   -0.064839
    13  C   -0.076735
    14  C    0.315234
    17  C   -0.012814
    18  C   -0.071073
    19  C    0.131822
    20  C    0.118868
    21  C   -0.049220
    22  C   -0.011211
    26  C   -0.064839
    27  C   -0.046037
    30  C    0.315234
    31  C   -0.076735
    33  O   -0.233996
    35  O   -0.233996
 Electronic spatial extent (au):  <R**2>=           5957.8802
 Charge=             -0.0000 electrons
 Dipole moment (field-independent basis, Debye):
    X=             -0.0000    Y=              0.0000    Z=              1.1897  Tot=              1.1897
 Quadrupole moment (field-independent basis, Debye-Ang):
   XX=           -104.1406   YY=           -116.3244   ZZ=           -120.9938
   XY=              6.7289   XZ=             -0.0000   YZ=             -0.0000
 Traceless Quadrupole moment (field-independent basis, Debye-Ang):
   XX=              9.6790   YY=             -2.5048   ZZ=             -7.1742
   XY=              6.7289   XZ=             -0.0000   YZ=             -0.0000
 Octapole moment (field-independent basis, Debye-Ang**2):
  XXX=             -0.0000  YYY=             -0.0000  ZZZ=             35.9081  XYY=              0.0000
  XXY=             -0.0000  XXZ=             44.3025  XZZ=              0.0000  YZZ=              0.0000
  YYZ=            -18.0349  XYZ=             26.0815
 Hexadecapole moment (field-independent basis, Debye-Ang**3):
 XXXX=          -1535.1554 YYYY=          -4832.8461 ZZZZ=          -1172.1844 XXXY=            -13.3506
 XXXZ=             -0.0000 YYYX=             47.2815 YYYZ=             -0.0000 ZZZX=              0.0000
 ZZZY=              0.0000 XXYY=          -1106.7389 XXZZ=           -347.9640 YYZZ=          -1061.2986
 XXYZ=              0.0000 YYXZ=             -0.0000 ZZXY=            -42.2353
 N-N= 1.672878961942D+03 E-N=-5.485962996773D+03  KE= 9.123190250763D+02
 Symmetry A    KE= 4.576307209499D+02
 Symmetry B    KE= 4.546883041264D+02
 Unable to Open any file for archive entry.
 1\1\GINC-CCC055\SP\RB3LYP TD-FC\6-31G(d)\C20H14O2\ROOT\20-Feb-2025\0\\
 # td=(nstat=16) b3lyp/6-31g(d)\\binol | No.3\\0,1\C,0,1.79067,-2.82890
 7,-1.68501\C,0,1.33307,-1.728514,-0.995738\C,0,0.139337,-1.785983,-0.2
 23215\C,0,-0.58117,-3.026889,-0.197665\C,0,-0.078836,-4.145001,-0.9155
 17\C,0,1.084215,-4.054853,-1.644107\H,0,2.704099,-2.755454,-2.269745\H
 ,0,1.880478,-0.793441,-1.042576\C,0,-0.359193,-0.655069,0.502015\C,0,-
 1.79067,-3.102933,0.538577\H,0,-0.63799,-5.07752,-0.880057\H,0,1.45871
 9,-4.915891,-2.190928\C,0,-2.270879,-2.008677,1.213643\C,0,-1.556582,-
 0.784517,1.193593\H,0,-2.338904,-4.041627,0.559946\H,0,-3.201073,-2.07
 1979,1.776473\C,0,-1.084215,4.054853,-1.644107\C,0,0.078836,4.145001,-
 0.915517\C,0,0.58117,3.026889,-0.197665\C,0,-0.139337,1.785983,-0.2232
 15\C,0,-1.33307,1.728514,-0.995738\C,0,-1.79067,2.828907,-1.68501\H,0,
 2.338904,4.041627,0.559946\H,0,-1.458719,4.915891,-2.190928\H,0,0.6379
 9,5.07752,-0.880057\C,0,1.79067,3.102933,0.538577\C,0,0.359193,0.65506
 9,0.502015\H,0,-1.880478,0.793441,-1.042576\H,0,-2.704099,2.755454,-2.
 269745\C,0,1.556582,0.784517,1.193593\C,0,2.270879,2.008677,1.213643\H
 ,0,3.201073,2.071979,1.776473\O,0,-2.028589,0.30322,1.877922\H,0,-2.86
 5932,0.064454,2.304065\O,0,2.028589,-0.30322,1.877922\H,0,2.865932,-0.
 064454,2.304065\\Version=ES64L-G16RevC.02\State=1-A\HF=-921.0151174\RM
 SD=5.038e-09\PG=C02 [X(C20H14O2)]\\@
 The archive entry for this job was punched.


 THERE ARE TWO THINGS THAT EVERYBODY THINKS THEY CAN DO BETTER THAN
 ANYONE ELSE - PUNCH THE FIRE, AND EDIT A DAILY PAPER.
 -- UNCLE ESEK, "CENTURY MAGAZINE", 1885
 Job cpu time:       0 days  0 hours 29 minutes 50.6 seconds.
 Elapsed time:       0 days  0 hours  3 minutes 53.2 seconds.
 File lengths (MBytes):  RWF=   1290 Int=      0 D2E=      0 Chk=     78 Scr=      1
 Normal termination of Gaussian 16 at Thu Feb 20 09:30:43 2025.
