 Entering Gaussian System, Link 0=/apl/gaussian/16c02/g16/._.g16
 Initial command:
 /apl/gaussian/16c02/g16/l1.exe "/lwork/users/ux8/8279371.ccpbs1/gaussian/Gau-4041372.inp" -scrdir="/lwork/users/ux8/8279371.ccpbs1/gaussian/"
 Default CPUs for threads: 48,49,50,51,52,53,54,55
 Default is to use a total of   8 processors:
                                8 via shared-memory
                                1 via Linda
 Entering Link 1 = /apl/gaussian/16c02/g16/l1.exe PID=   4041374.
  
 Copyright (c) 1988-2021, Gaussian, Inc.  All Rights Reserved.
  
 This is part of the Gaussian(R) 16 program.  It is based on
 the Gaussian(R) 09 system (copyright 2009, Gaussian, Inc.),
 the Gaussian(R) 03 system (copyright 2003, Gaussian, Inc.),
 the Gaussian(R) 98 system (copyright 1998, Gaussian, Inc.),
 the Gaussian(R) 94 system (copyright 1995, Gaussian, Inc.),
 the Gaussian 92(TM) system (copyright 1992, Gaussian, Inc.),
 the Gaussian 90(TM) system (copyright 1990, Gaussian, Inc.),
 the Gaussian 88(TM) system (copyright 1988, Gaussian, Inc.),
 the Gaussian 86(TM) system (copyright 1986, Carnegie Mellon
 University), and the Gaussian 82(TM) system (copyright 1983,
 Carnegie Mellon University). Gaussian is a federally registered
 trademark of Gaussian, Inc.
  
 This software contains proprietary and confidential information,
 including trade secrets, belonging to Gaussian, Inc.
  
 This software is provided under written license and may be
 used, copied, transmitted, or stored only in accord with that
 written license.
  
 The following legend is applicable only to US Government
 contracts under FAR:
  
                    RESTRICTED RIGHTS LEGEND
  
 Use, reproduction and disclosure by the US Government is
 subject to restrictions as set forth in subparagraphs (a)
 and (c) of the Commercial Computer Software - Restricted
 Rights clause in FAR 52.227-19.
  
 Gaussian, Inc.
 340 Quinnipiac St., Bldg. 40, Wallingford CT 06492
  
  
 ---------------------------------------------------------------
 Warning -- This program may not be used in any manner that
 competes with the business of Gaussian, Inc. or will provide
 assistance to any competitor of Gaussian, Inc.  The licensee
 of this program is prohibited from giving any competitor of
 Gaussian, Inc. access to this program.  By using this program,
 the user acknowledges that Gaussian, Inc. is engaged in the
 business of creating and licensing software in the field of
 computational chemistry and represents and warrants to the
 licensee that it is not a competitor of Gaussian, Inc. and that
 it will not use this program in any manner prohibited above.
 ---------------------------------------------------------------
  

 Cite this work as:
 Gaussian 16, Revision C.02,
 M. J. Frisch, G. W. Trucks, H. B. Schlegel, G. E. Scuseria, 
 M. A. Robb, J. R. Cheeseman, G. Scalmani, V. Barone, 
 G. A. Petersson, H. Nakatsuji, X. Li, M. Caricato, A. V. Marenich, 
 J. Bloino, B. G. Janesko, R. Gomperts, B. Mennucci, H. P. Hratchian, 
 J. V. Ortiz, A. F. Izmaylov, J. L. Sonnenberg, D. Williams-Young, 
 F. Ding, F. Lipparini, F. Egidi, J. Goings, B. Peng, A. Petrone, 
 T. Henderson, D. Ranasinghe, V. G. Zakrzewski, J. Gao, N. Rega, 
 G. Zheng, W. Liang, M. Hada, M. Ehara, K. Toyota, R. Fukuda, 
 J. Hasegawa, M. Ishida, T. Nakajima, Y. Honda, O. Kitao, H. Nakai, 
 T. Vreven, K. Throssell, J. A. Montgomery, Jr., J. E. Peralta, 
 F. Ogliaro, M. J. Bearpark, J. J. Heyd, E. N. Brothers, K. N. Kudin, 
 V. N. Staroverov, T. A. Keith, R. Kobayashi, J. Normand, 
 K. Raghavachari, A. P. Rendell, J. C. Burant, S. S. Iyengar, 
 J. Tomasi, M. Cossi, J. M. Millam, M. Klene, C. Adamo, R. Cammi, 
 J. W. Ochterski, R. L. Martin, K. Morokuma, O. Farkas, 
 J. B. Foresman, and D. J. Fox, Gaussian, Inc., Wallingford CT, 2019.
 
 ******************************************
 Gaussian 16:  ES64L-G16RevC.02  7-Dec-2021
                20-Feb-2025 
 ******************************************
 %chk=binol.017.tddft.chk
 %mem=9600MB
 SetSPE:  set environment variable "OMP_PROC_BIND" = "true"
 SetSPE:  set environment variable "OMP_PLACES" = "{48},{49},{50},{51},{52},{53},{54},{55}"
 ------------------------------
 # td=(nstat=16) b3lyp/6-31g(d)
 ------------------------------
 1/38=1,172=1/1;
 2/12=2,17=6,18=5,40=1/2;
 3/5=1,6=6,7=1,11=9,25=1,30=1,74=-5/1,2,3,8;
 4//1;
 5/5=2,38=5/2;
 8/6=1,10=2,108=16/1;
 9/41=16,42=1,70=2/14;
 6/7=2,8=2,9=2,10=2/1;
 99/5=1,9=1/99;
 -------------
 binol | No.17
 -------------
 Symbolic Z-matrix:
 Charge =  0 Multiplicity = 1
 C                    -2.78629  -1.85747   1.68455 
 C                    -1.69686  -1.37384   0.99564 
 C                    -1.78235  -0.18169   0.22325 
 C                    -3.03993   0.5093    0.19756 
 C                    -4.14602  -0.01947   0.91504 
 C                    -4.02858  -1.18018   1.64346 
 H                    -2.6914   -2.76899   2.26918 
 H                    -0.74908  -1.89892   1.04272 
 C                    -0.66336   0.34353  -0.50164 
 C                    -3.14436   1.71679  -0.53852 
 H                    -5.09146   0.51754   0.87952 
 H                    -4.88066  -1.57504   2.19 
 C                    -2.06161   2.22281  -1.21329 
 C                    -0.82095   1.53758  -1.19315 
 H                    -4.09572   2.24274  -0.55989 
 H                    -2.1467    3.15136  -1.77597 
 C                     4.0284    1.18026   1.64351 
 C                     4.14586   0.01938   0.91534 
 C                     3.03985  -0.50941   0.19777 
 C                     1.78231   0.18165   0.22322 
 C                     1.6968    1.37401   0.99527 
 C                     2.78618   1.8577    1.68422 
 H                     4.09568  -2.24294  -0.55944 
 H                     4.88043   1.57517   2.19008 
 H                     5.09128  -0.51768   0.88007 
 C                     3.14434  -1.71695  -0.53823 
 C                     0.66338  -0.34372  -0.50159 
 H                     0.74908   1.89923   1.04198 
 H                     2.69132   2.76941   2.26856 
 C                     0.82106  -1.53766  -1.19326 
 C                     2.06172  -2.22291  -1.21324 
 H                     2.1469   -3.15141  -1.77596 
 O                     0.25551   2.03524  -1.87718 
 H                    -0.00294   2.86657  -2.3036 
 O                    -0.25522  -2.03511  -1.87765 
 H                     0.00335  -2.86632  -2.30423 
 
                          Input orientation:                          
 ---------------------------------------------------------------------
 Center     Atomic      Atomic             Coordinates (Angstroms)
 Number     Number       Type             X           Y           Z
 ---------------------------------------------------------------------
      1          6           0       -2.786290   -1.857470    1.684551
      2          6           0       -1.696859   -1.373840    0.995643
      3          6           0       -1.782354   -0.181693    0.223246
      4          6           0       -3.039926    0.509300    0.197563
      5          6           0       -4.146020   -0.019468    0.915042
      6          6           0       -4.028579   -1.180183    1.643464
      7          1           0       -2.691395   -2.768990    2.269176
      8          1           0       -0.749081   -1.898924    1.042720
      9          6           0       -0.663358    0.343530   -0.501635
     10          6           0       -3.144357    1.716790   -0.538522
     11          1           0       -5.091464    0.517538    0.879524
     12          1           0       -4.880662   -1.575036    2.189998
     13          6           0       -2.061608    2.222813   -1.213290
     14          6           0       -0.820945    1.537582   -1.193154
     15          1           0       -4.095718    2.242738   -0.559889
     16          1           0       -2.146695    3.151355   -1.775972
     17          6           0        4.028397    1.180263    1.643509
     18          6           0        4.145863    0.019376    0.915340
     19          6           0        3.039848   -0.509409    0.197771
     20          6           0        1.782306    0.181649    0.223224
     21          6           0        1.696798    1.374011    0.995274
     22          6           0        2.786181    1.857700    1.684221
     23          1           0        4.095683   -2.242942   -0.559442
     24          1           0        4.880432    1.575170    2.190079
     25          1           0        5.091284   -0.517684    0.880067
     26          6           0        3.144339   -1.716954   -0.538228
     27          6           0        0.663378   -0.343719   -0.501591
     28          1           0        0.749082    1.899227    1.041982
     29          1           0        2.691320    2.769409    2.268558
     30          6           0        0.821061   -1.537658   -1.193255
     31          6           0        2.061716   -2.222906   -1.213235
     32          1           0        2.146899   -3.151412   -1.775964
     33          8           0        0.255512    2.035235   -1.877183
     34          1           0       -0.002943    2.866572   -2.303601
     35          8           0       -0.255218   -2.035107   -1.877647
     36          1           0        0.003346   -2.866323   -2.304230
 ---------------------------------------------------------------------
                    Distance matrix (angstroms):
                    1          2          3          4          5
     1  C    0.000000
     2  C    1.376718   0.000000
     3  C    2.439575   1.423067   0.000000
     4  C    2.806611   2.446830   1.435137   0.000000
     5  C    2.412314   2.799859   2.468160   1.420498   0.000000
     6  C    1.415517   2.427775   2.838931   2.433602   1.375373
     7  H    1.087042   2.134814   3.421446   3.893615   3.392563
     8  H    2.136325   1.084533   2.165196   3.429549   3.884308
     9  C    3.759076   2.501864   1.432991   2.482828   3.777258
    10  C    4.224405   3.741779   2.457556   1.418012   2.476039
    11  H    3.406253   3.887691   3.445263   2.161931   1.087888
    12  H    2.172933   3.406401   3.925434   3.420901   2.141262
    13  C    5.056813   4.236548   2.814830   2.425642   3.728591
    14  C    4.865197   3.746256   2.426191   2.813420   4.233795
    15  H    4.854258   4.610189   3.441340   2.166388   2.701023
    16  H    6.121489   5.325560   3.903694   3.416600   4.614431
    17  C    7.461197   6.302518   6.134892   7.245836   8.294041
    18  C    7.222810   6.007071   5.971866   7.238148   8.291974
    19  C    6.162115   4.880598   4.833392   6.164529   7.238178
    20  C    5.212058   3.888543   3.583130   4.833419   5.971944
    21  C    5.569170   4.366646   3.888540   4.880637   6.007224
    22  C    6.697382   5.569079   5.212013   6.162131   7.222936
    23  H    7.248838   6.060295   6.277951   7.685363   8.662771
    24  H    8.415296   7.306442   7.165732   8.236399   9.254481
    25  H    8.031089   6.842898   6.913118   8.224177   9.250796
    26  C    6.335049   5.089959   5.216241   6.613829   7.625142
    27  C    4.355556   2.978855   2.556022   3.864055   5.024171
    28  H    5.198512   4.086287   3.377680   4.123290   5.259233
    29  H    7.193976   6.167896   5.736381   6.499561   7.507267
    30  C    4.625692   3.340364   3.259277   4.586026   5.605507
    31  C    5.659847   4.441502   4.583329   5.956681   6.922477
    32  H    6.163262   5.061229   5.315553   6.648216   7.526713
    33  O    6.090292   4.866896   3.671440   4.182459   5.602839
    34  H    6.780041   5.633423   4.340873   4.586482   5.987819
    35  O    4.373458   3.281981   3.190774   4.305241   5.196177
    36  H    4.970938   4.000920   4.096840   5.187996   5.973737
                    6          7          8          9         10
     6  C    0.000000
     7  H    2.168844   0.000000
     8  H    3.410658   2.456378   0.000000
     9  C    4.271752   4.634448   2.724148   0.000000
    10  C    3.733010   5.311362   4.616390   2.835941   0.000000
    11  H    2.143732   4.300317   4.972144   4.641767   2.690778
    12  H    1.086579   2.494932   4.300129   5.358305   4.614726
    13  C    4.859053   6.119011   4.878629   2.448114   1.372486
    14  C    5.071643   5.833770   4.100472   1.388810   2.420517
    15  H    4.071322   5.923947   5.560728   3.923198   1.087274
    16  H    5.830630   7.190995   5.950098   3.421711   2.141165
    17  C    8.395628   7.819441   5.715473   5.226311   7.516483
    18  C    8.294010   7.507060   5.258952   5.024092   7.625106
    19  C    7.245870   6.499505   4.123187   3.863989   6.613810
    20  C    6.134986   5.736392   3.377614   2.555954   5.216217
    21  C    6.302698   6.167943   4.086157   2.978752   5.089873
    22  C    7.461323   7.193905   5.198252   4.355456   6.334960
    23  H    8.484450   7.371719   5.114392   5.416793   8.252157
    24  H    9.341372   8.729865   6.713954   6.284574   8.477179
    25  H    9.175706   8.219981   6.003677   5.980526   8.650494
    26  C    7.516559   6.560799   4.206094   4.329606   7.165075
    27  C    5.226413   4.981324   2.607412   1.494169   4.329654
    28  H    5.715819   5.927490   4.082945   2.607285   4.205965
    29  H    7.819659   7.723178   5.927257   4.981237   6.560704
    30  C    5.629722   5.083498   2.755983   2.494134   5.171523
    31  C    6.807326   5.917555   3.618684   3.810380   6.563508
    32  H    7.329035   6.318108   4.230887   4.662197   7.295755
    33  O    6.409938   6.996937   5.001265   2.366077   3.667769
    34  H    6.939834   7.739355   5.870651   3.170011   3.782325
    35  O    5.231383   4.865150   2.964960   2.778111   4.921088
    36  H    5.889293   5.309157   3.564279   3.741256   5.833582
                   11         12         13         14         15
    11  H    0.000000
    12  H    2.478033   0.000000
    13  C    4.058061   5.826928   0.000000
    14  C    4.855287   6.133140   1.417460   0.000000
    15  H    2.457587   4.770054   2.136570   3.409165   0.000000
    16  H    4.760285   6.748501   1.089055   2.168307   2.470452
    17  C    9.175769   9.341395   6.807082   5.629427   8.484401
    18  C    9.250819   9.254461   6.922348   5.605344   8.662753
    19  C    8.224211   8.236444   5.956592   4.585910   7.685354
    20  C    6.913195   7.165842   4.583186   3.259079   6.277939
    21  C    6.843058   7.306656   4.441152   3.339911   6.060236
    22  C    8.031243   8.415460   5.659500   4.625270   7.248780
    23  H    9.700234   9.411710   7.634312   6.234355   9.339185
    24  H   10.113103  10.256839   7.758497   6.629734   9.411654
    25  H   10.235235  10.113042   7.940802   6.593695   9.700227
    26  C    8.650516   8.477264   6.563487   5.171500   8.252155
    27  C    5.980589   6.284678   3.810400   2.494147   5.416840
    28  H    6.003952   6.714347   3.618140   2.755287   5.114301
    29  H    8.220223   8.730137   5.917124   5.082996   7.371661
    30  C    6.593800   6.630041   4.738283   3.486156   6.234361
    31  C    7.940885   7.758759   6.063515   4.738292   7.634319
    32  H    8.538543   8.221948   6.849119   5.579823   8.339422
    33  O    6.204272   7.480394   2.417640   1.369056   4.550991
    34  H    6.445409   7.982008   2.416879   1.915316   4.492272
    35  O    6.124317   6.176741   4.672718   3.681397   5.897956
    36  H    6.895208   6.761586   5.599419   4.616094   6.778463
                   16         17         18         19         20
    16  H    0.000000
    17  C    7.328698   0.000000
    18  C    7.526536   1.375386   0.000000
    19  C    6.648089   2.433594   1.420489   0.000000
    20  C    5.315354   2.838902   2.468149   1.435138   0.000000
    21  C    5.060750   2.427777   2.799883   2.446848   1.423060
    22  C    6.162771   1.415514   2.412333   2.806615   2.439554
    23  H    8.339405   4.071345   2.701034   2.166402   3.441354
    24  H    8.221583   1.086579   2.141272   3.420893   3.925405
    25  H    8.538427   2.143734   1.087887   2.161940   3.445264
    26  C    7.295717   3.733015   2.476036   1.418019   2.457567
    27  C    4.662199   4.271689   3.777199   2.482775   1.432958
    28  H    4.230155   3.410667   3.884327   3.429552   2.165177
    29  H    6.317475   2.168835   3.392577   3.893620   3.421432
    30  C    5.579783   5.071620   4.233773   2.813408   2.426195
    31  C    6.849093   4.859051   3.728583   2.425645   2.814848
    32  H    7.626259   5.830629   4.614420   3.416602   3.903713
    33  O    2.650767   5.230766   5.195835   4.305017   3.190390
    34  H    2.226020   5.888550   5.973332   5.187744   4.096434
    35  O    5.521541   6.409875   5.602784   4.182412   3.671399
    36  H    6.412034   6.939779   5.987766   4.586436   4.340836
                   21         22         23         24         25
    21  C    0.000000
    22  C    1.376720   0.000000
    23  H    4.610221   4.854285   0.000000
    24  H    3.406398   2.172925   4.770081   0.000000
    25  H    3.887714   3.406261   2.457625   2.478029   0.000000
    26  C    3.741800   4.224418   1.087276   4.614733   2.690800
    27  C    2.501831   3.759031   3.923151   5.358243   4.641723
    28  H    1.084527   2.136344   5.560743   4.300139   4.972162
    29  H    2.134821   1.087043   5.923975   2.494910   4.300316
    30  C    3.746250   4.865185   3.409149   6.133118   4.855287
    31  C    4.236566   5.056822   2.136555   5.826928   4.058076
    32  H    5.325580   6.121500   2.470426   6.748502   4.760297
    33  O    3.281087   4.372574   5.897979   6.176096   6.124093
    34  H    3.999929   4.969885   6.778492   6.760786   6.894931
    35  O    4.866840   6.090235   4.550956   7.480334   6.204244
    36  H    5.633377   6.779993   4.492228   7.981957   6.445383
                   26         27         28         29         30
    26  C    0.000000
    27  C    2.835892   0.000000
    28  H    4.616393   2.724109   0.000000
    29  H    5.311377   4.634419   2.456419   0.000000
    30  C    2.420502   1.388796   4.100444   5.833768   0.000000
    31  C    1.372477   2.448087   4.878626   6.119027   1.417459
    32  H    2.141155   3.421696   5.950098   7.191013   2.168317
    33  O    4.921082   2.778134   2.963720   4.864087   3.681463
    34  H    5.833578   3.741282   3.562895   5.307837   4.616177
    35  O    3.667731   2.366039   5.001183   6.996890   1.369023
    36  H    3.782281   3.169965   5.870581   7.739320   1.915274
                   31         32         33         34         35
    31  C    0.000000
    32  H    1.089056   0.000000
    33  O    4.672790   5.521675   0.000000
    34  H    5.599509   6.412203   0.969408   0.000000
    35  O    2.417622   2.650781   4.102259   4.926615   0.000000
    36  H    2.416846   2.226019   4.926584   5.732898   0.969406
                   36
    36  H    0.000000
 Stoichiometry    C20H14O2
 Framework group  C1[X(C20H14O2)]
 Deg. of freedom   102
 Full point group                 C1      NOp   1
 Largest Abelian subgroup         C1      NOp   1
 Largest concise Abelian subgroup C1      NOp   1
                         Standard orientation:                         
 ---------------------------------------------------------------------
 Center     Atomic      Atomic             Coordinates (Angstroms)
 Number     Number       Type             X           Y           Z
 ---------------------------------------------------------------------
      1          6           0        2.786290   -1.857470   -1.684551
      2          6           0        1.696859   -1.373840   -0.995643
      3          6           0        1.782354   -0.181693   -0.223246
      4          6           0        3.039926    0.509300   -0.197563
      5          6           0        4.146020   -0.019468   -0.915042
      6          6           0        4.028579   -1.180183   -1.643464
      7          1           0        2.691395   -2.768990   -2.269176
      8          1           0        0.749081   -1.898924   -1.042720
      9          6           0        0.663358    0.343530    0.501635
     10          6           0        3.144357    1.716790    0.538522
     11          1           0        5.091464    0.517538   -0.879524
     12          1           0        4.880662   -1.575036   -2.189998
     13          6           0        2.061608    2.222813    1.213290
     14          6           0        0.820945    1.537582    1.193154
     15          1           0        4.095718    2.242738    0.559889
     16          1           0        2.146695    3.151355    1.775972
     17          6           0       -4.028397    1.180263   -1.643509
     18          6           0       -4.145863    0.019376   -0.915340
     19          6           0       -3.039848   -0.509409   -0.197771
     20          6           0       -1.782306    0.181649   -0.223224
     21          6           0       -1.696798    1.374011   -0.995274
     22          6           0       -2.786181    1.857700   -1.684221
     23          1           0       -4.095683   -2.242942    0.559442
     24          1           0       -4.880432    1.575170   -2.190079
     25          1           0       -5.091284   -0.517684   -0.880067
     26          6           0       -3.144339   -1.716954    0.538228
     27          6           0       -0.663378   -0.343719    0.501591
     28          1           0       -0.749082    1.899227   -1.041982
     29          1           0       -2.691320    2.769409   -2.268558
     30          6           0       -0.821061   -1.537658    1.193255
     31          6           0       -2.061716   -2.222906    1.213235
     32          1           0       -2.146899   -3.151412    1.775964
     33          8           0       -0.255512    2.035235    1.877183
     34          1           0        0.002943    2.866572    2.303601
     35          8           0        0.255218   -2.035107    1.877647
     36          1           0       -0.003346   -2.866323    2.304230
 ---------------------------------------------------------------------
 Rotational constants (GHZ):           0.4856711           0.2198914           0.2015353
 Standard basis: 6-31G(d) (6D, 7F)
 There are   358 symmetry adapted cartesian basis functions of A   symmetry.
 There are   358 symmetry adapted basis functions of A   symmetry.
   358 basis functions,   672 primitive gaussians,   358 cartesian basis functions
    75 alpha electrons       75 beta electrons
       nuclear repulsion energy      1672.8835058046 Hartrees.
 NAtoms=   36 NActive=   36 NUniq=   36 SFac= 1.00D+00 NAtFMM=   60 NAOKFM=F Big=F
 Integral buffers will be    131072 words long.
 Regular integral format.
 Two-electron integral symmetry is turned on.
 One-electron integrals computed using PRISM.
 NBasis=   358 RedAO= T EigKep=  2.32D-04  NBF=   358
 NBsUse=   358 1.00D-06 EigRej= -1.00D+00 NBFU=   358
 ExpMin= 1.61D-01 ExpMax= 5.48D+03 ExpMxC= 8.25D+02 IAcc=3 IRadAn=         5 AccDes= 0.00D+00
 Harris functional with IExCor=  402 and IRadAn=       5 diagonalized for initial guess.
 HarFok:  IExCor=  402 AccDes= 0.00D+00 IRadAn=         5 IDoV= 1 UseB2=F ITyADJ=14
 ICtDFT=  3500011 ScaDFX=  1.000000  1.000000  1.000000  1.000000
 FoFCou: FMM=F IPFlag=           0 FMFlag=      100000 FMFlg1=           0
         NFxFlg=           0 DoJE=T BraDBF=F KetDBF=T FulRan=T
         wScrn=  0.000000 ICntrl=       500 IOpCl=  0 I1Cent=   200000004 NGrid=           0
         NMat0=    1 NMatS0=      1 NMatT0=    0 NMatD0=    1 NMtDS0=    0 NMtDT0=    0
 Petite list used in FoFCou.
 Requested convergence on RMS density matrix=1.00D-08 within 128 cycles.
 Requested convergence on MAX density matrix=1.00D-06.
 Requested convergence on             energy=1.00D-06.
 No special actions if energy rises.
 Integral accuracy reduced to 1.0D-05 until final iterations.
 Initial convergence to 1.0D-05 achieved.  Increase integral accuracy.
 SCF Done:  E(RB3LYP) =  -921.015115178     A.U. after   14 cycles
            NFock= 14  Conv=0.51D-08     -V/T= 2.0095
 DoSCS=F DFT=T ScalE2(SS,OS)=  1.000000  1.000000
 ExpMin= 1.61D-01 ExpMax= 5.48D+03 ExpMxC= 8.25D+02 IAcc=3 IRadAn=         5 AccDes= 0.00D+00
 HarFok:  IExCor=  205 AccDes= 0.00D+00 IRadAn=         5 IDoV=-2 UseB2=F ITyADJ=14
 ICtDFT= 12500011 ScaDFX=  1.000000  1.000000  1.000000  1.000000
 GSVD:  LWork=        -660 too small for GESVD, short by        2750 words or        2750 for optimal perf.
 Range of M.O.s used for correlation:    23   358
 NBasis=   358 NAE=    75 NBE=    75 NFC=    22 NFV=     0
 NROrb=    336 NOA=    53 NOB=    53 NVA=   283 NVB=   283
 Orbital symmetries:
       Occupied  (A) (A) (A) (A) (A) (A) (A) (A) (A) (A) (A) (A)
                 (A) (A) (A) (A) (A) (A) (A) (A) (A) (A) (A) (A)
                 (A) (A) (A) (A) (A) (A) (A) (A) (A) (A) (A) (A)
                 (A) (A) (A) (A) (A) (A) (A) (A) (A) (A) (A) (A)
                 (A) (A) (A) (A) (A) (A) (A) (A) (A) (A) (A) (A)
                 (A) (A) (A) (A) (A) (A) (A) (A) (A) (A) (A) (A)
                 (A) (A) (A)
       Virtual   (A) (A) (A) (A) (A) (A) (A) (A) (A) (A) (A) (A)
                 (A) (A) (A) (A) (A) (A) (A) (A) (A) (A) (A) (A)
                 (A) (A) (A) (A) (A) (A) (A) (A) (A) (A) (A) (A)
                 (A) (A) (A) (A) (A) (A) (A) (A) (A) (A) (A) (A)
                 (A) (A) (A) (A) (A) (A) (A) (A) (A) (A) (A) (A)
                 (A) (A) (A) (A) (A) (A) (A) (A) (A) (A) (A) (A)
                 (A) (A) (A) (A) (A) (A) (A) (A) (A) (A) (A) (A)
                 (A) (A) (A) (A) (A) (A) (A) (A) (A) (A) (A) (A)
                 (A) (A) (A) (A) (A) (A) (A) (A) (A) (A) (A) (A)
                 (A) (A) (A) (A) (A) (A) (A) (A) (A) (A) (A) (A)
                 (A) (A) (A) (A) (A) (A) (A) (A) (A) (A) (A) (A)
                 (A) (A) (A) (A) (A) (A) (A) (A) (A) (A) (A) (A)
                 (A) (A) (A) (A) (A) (A) (A) (A) (A) (A) (A) (A)
                 (A) (A) (A) (A) (A) (A) (A) (A) (A) (A) (A) (A)
                 (A) (A) (A) (A) (A) (A) (A) (A) (A) (A) (A) (A)
                 (A) (A) (A) (A) (A) (A) (A) (A) (A) (A) (A) (A)
                 (A) (A) (A) (A) (A) (A) (A) (A) (A) (A) (A) (A)
                 (A) (A) (A) (A) (A) (A) (A) (A) (A) (A) (A) (A)
                 (A) (A) (A) (A) (A) (A) (A) (A) (A) (A) (A) (A)
                 (A) (A) (A) (A) (A) (A) (A) (A) (A) (A) (A) (A)
                 (A) (A) (A) (A) (A) (A) (A) (A) (A) (A) (A) (A)
                 (A) (A) (A) (A) (A) (A) (A) (A) (A) (A) (A) (A)
                 (A) (A) (A) (A) (A) (A) (A) (A) (A) (A) (A) (A)
                 (A) (A) (A) (A) (A) (A) (A)
    64 initial guesses have been made.
 Convergence on wavefunction:    0.001000000000000
 Iteration     1 Dimension    64 NMult     0 NNew     64
 CISAX will form    64 AO SS matrices at one time.
 New state      2 was old state      3
 New state      3 was old state      4
 New state      4 was old state      2
 New state      7 was old state      9
 New state      8 was old state      7
 New state      9 was old state     11
 New state     10 was old state     12
 New state     11 was old state     14
 New state     12 was old state     19
 New state     14 was old state     15
 New state     15 was old state     16
 New state     16 was old state     20
 Iteration     2 Dimension    96 NMult    64 NNew     32
 New state      3 was old state      4
 New state      4 was old state      3
 New state     14 was old state     15
 New state     15 was old state     14
 Iteration     3 Dimension   128 NMult    96 NNew     32
 New state     14 was old state     15
 New state     15 was old state     14
 Iteration     4 Dimension   160 NMult   128 NNew     32
 Iteration     5 Dimension   178 NMult   160 NNew     18
 Iteration     6 Dimension   184 NMult   178 NNew      6
 ***********************************************************************
 Excited states from <AA,BB:AA,BB> singles matrix:
 ***********************************************************************
 
 Ground to excited state transition densities written to RWF  633
 Ground to excited state transition electric dipole moments (Au):
       state          X           Y           Z        Dip. S.      Osc.
         1        -1.0727     -0.4494      0.0001      1.3528      0.1237
         2         0.0002      0.0002      0.0276      0.0008      0.0001
         3         0.0000      0.0001     -0.3203      0.1026      0.0103
         4         0.5068      0.4681      0.0001      0.4760      0.0492
         5         0.5941      0.1578      0.0000      0.3779      0.0413
         6         0.0001      0.0000      0.0162      0.0003      0.0000
         7        -0.0000     -0.0003      0.2151      0.0463      0.0054
         8         0.0798     -0.3713     -0.0002      0.1442      0.0170
         9         0.0005     -0.0004     -0.1279      0.0164      0.0020
        10        -0.3326      0.2739     -0.0002      0.1856      0.0224
        11        -0.4303      0.2802      0.0002      0.2637      0.0347
        12         0.0011      0.0000     -0.7592      0.5764      0.0786
        13        -0.9250      0.0411     -0.0007      0.8574      0.1170
        14        -0.6316      0.8990     -0.0017      1.2072      0.1700
        15         0.0046     -0.0072     -0.1378      0.0191      0.0027
        16         0.0026     -0.0013      0.4170      0.1739      0.0246
 Ground to excited state transition velocity dipole moments (Au):
       state          X           Y           Z        Dip. S.      Osc.
         1         0.1577      0.0633     -0.0000      0.0289      0.1404
         2        -0.0000     -0.0000     -0.0081      0.0001      0.0003
         3        -0.0000     -0.0000      0.0425      0.0018      0.0079
         4        -0.0935     -0.0718     -0.0000      0.0139      0.0597
         5        -0.1052     -0.0302     -0.0000      0.0120      0.0487
         6        -0.0000     -0.0000      0.0003      0.0000      0.0000
         7         0.0000      0.0001     -0.0412      0.0017      0.0064
         8        -0.0074      0.0674      0.0000      0.0046      0.0173
         9        -0.0001      0.0000      0.0263      0.0007      0.0026
        10         0.0542     -0.0413      0.0001      0.0046      0.0171
        11         0.0807     -0.0478     -0.0000      0.0088      0.0297
        12        -0.0002      0.0000      0.1489      0.0222      0.0723
        13         0.1926     -0.0129      0.0001      0.0373      0.1213
        14         0.1296     -0.1873      0.0004      0.0519      0.1637
        15        -0.0009      0.0015      0.0303      0.0009      0.0029
        16        -0.0005      0.0003     -0.0935      0.0087      0.0275
 Ground to excited state transition magnetic dipole moments (Au):
       state          X           Y           Z
         1        -0.0712     -0.0249     -0.0000
         2         0.0000      0.0001     -0.1203
         3        -0.0001     -0.0001      0.8259
         4        -0.1861      0.2899      0.0001
         5         0.0402     -0.1554      0.0001
         6         0.0000     -0.0002     -0.0014
         7         0.0001     -0.0002     -0.4248
         8         0.0865     -0.3096      0.0005
         9         0.0002     -0.0003      0.3468
        10        -0.0885      0.2148      0.0007
        11        -0.1511      0.5445     -0.0003
        12         0.0003     -0.0008      1.2323
        13        -0.3262      0.7195      0.0013
        14        -0.1376      0.7633      0.0023
        15         0.0011     -0.0060      0.2005
        16         0.0003     -0.0015     -0.4566
 Ground to excited state transition velocity quadrupole moments (Au):
       state          XX          YY          ZZ          XY          XZ          YZ
         1         0.0001     -0.0000     -0.0000     -0.0001     -0.0972      0.1992
         2         0.0209     -0.0263      0.0019     -0.0014     -0.0000     -0.0000
         3         0.8023      0.1117     -0.0121      0.5234      0.0000      0.0000
         4        -0.0001     -0.0000     -0.0000      0.0000     -0.0361     -0.0580
         5        -0.0002      0.0000      0.0000     -0.0000      0.1452     -0.0375
         6         0.6250     -0.0763     -0.0137      0.1082      0.0001     -0.0000
         7         0.0610     -0.0445     -0.0076     -0.1613      0.0001      0.0001
         8        -0.0002      0.0001     -0.0000      0.0001      0.1644      0.0229
         9        -0.1586      0.0344     -0.0063      0.0694      0.0004     -0.0000
        10        -0.0003      0.0000     -0.0000      0.0001     -0.2834     -0.0231
        11         0.0003     -0.0001      0.0000     -0.0001     -0.2442      0.0786
        12        -1.0614      0.1681     -0.0359      0.6041      0.0002     -0.0005
        13        -0.0011      0.0001     -0.0000      0.0006     -0.2325      0.4308
        14         0.0004      0.0008      0.0002      0.0030     -0.7978     -0.0069
        15         0.1761      0.0667      0.0166      0.3190      0.0063      0.0002
        16         0.7587     -0.1231     -0.0935     -0.2889      0.0016     -0.0001
 <0|del|b> * <b|rxdel|0> + <0|del|b> * <b|delr+rdel|0>
 Rotatory Strengths (R) in cgs (10**-40 erg-esu-cm/Gauss)
       state          XX          YY          ZZ    R(velocity)    E-M Angle
         1        11.8041     52.0163   -129.8885    -22.0227      177.40
         2         2.4406      2.3825     -0.0000      1.6077       90.00
         3       133.9135     30.0230      0.0000     54.6455       90.00
         4       -53.3581     52.0331    -14.2489     -5.1913       94.82
         5        19.5940     -0.6088    -16.9246      0.6869       88.44
         6         0.0742     -0.0762     -0.0000     -0.0007       90.00
         7        48.4724     21.7958     -0.0000     23.4227       90.00
         8       -63.8733     -1.6205    -20.5182    -28.6707      170.66
         9        21.4599     14.3024     -0.0000     11.9208       90.00
        10       -40.1471    -11.7963     -1.3903    -17.7779      149.72
        11       -67.5409    -10.4909    -58.9272    -45.6530      136.14
        12       472.9642    161.7879     -0.0003    211.5839        0.11
        13       -21.2183     34.7930   -262.6087    -83.0114      118.22
        14      -489.4668    -31.3409    -17.5018   -179.4365      155.54
        15        26.3387     -6.0143     -0.0005      6.7746        4.99
        16       116.1673     26.1399     -0.0003     47.4356        0.51
 1/2[<0|r|b>*<b|rxdel|0> + (<0|rxdel|b>*<b|r|0>)*]
 Rotatory Strengths (R) in cgs (10**-40 erg-esu-cm/Gauss)
       state          XX          YY          ZZ     R(length)
         1       -54.0409     -7.9155      0.0000    -20.6521
         2        -0.0000     -0.0000      2.3493      0.7831
         3         0.0000      0.0000    187.0425     62.3475
         4        66.6821    -95.9719     -0.0000     -9.7633
         5       -16.8707     17.3426     -0.0000      0.1573
         6        -0.0000      0.0000      0.0161      0.0054
         7         0.0000     -0.0000     64.6037     21.5346
         8        -4.8816    -81.2893      0.0001    -28.7236
         9        -0.0001     -0.0001     31.3690     10.4563
        10       -20.8190    -41.5995      0.0001    -20.8061
        11       -45.9821   -107.8826      0.0000    -51.2882
        12        -0.0002      0.0000    661.6174    220.5391
        13      -213.3677    -20.9205      0.0006    -78.0959
        14       -61.4427   -485.2559      0.0027   -182.2320
        15        -0.0035     -0.0304     19.5453      6.5038
        16        -0.0006     -0.0013    134.6649     44.8877
  1/2[<0|del|b>*<b|r|0> + (<0|r|b>*<b|del|0>)*] (Au)
       state          X           Y           Z        Dip. S.   Osc.(frdel)
         1        -0.1692     -0.0285     -0.0000      0.1977      0.1318
         2        -0.0000     -0.0000     -0.0002      0.0002      0.0001
         3        -0.0000     -0.0000     -0.0136      0.0136      0.0091
         4        -0.0474     -0.0336     -0.0000      0.0810      0.0540
         5        -0.0625     -0.0048     -0.0000      0.0673      0.0448
         6        -0.0000     -0.0000      0.0000     -0.0000     -0.0000
         7        -0.0000     -0.0000     -0.0089      0.0089      0.0059
         8        -0.0006     -0.0250     -0.0000      0.0256      0.0171
         9        -0.0000     -0.0000     -0.0034      0.0034      0.0022
        10        -0.0180     -0.0113     -0.0000      0.0293      0.0196
        11        -0.0347     -0.0134     -0.0000      0.0481      0.0321
        12        -0.0000      0.0000     -0.1131      0.1131      0.0754
        13        -0.1782     -0.0005     -0.0000      0.1787      0.1191
        14        -0.0818     -0.1684     -0.0000      0.2503      0.1668
        15        -0.0000     -0.0000     -0.0042      0.0042      0.0028
        16        -0.0000     -0.0000     -0.0390      0.0390      0.0260

 Excitation energies and oscillator strengths:
 
 Excited State   1:      Singlet-A      3.7321 eV  332.21 nm  f=0.1237  <S**2>=0.000
      74 -> 77         0.12067
      75 -> 76         0.68829
 This state for optimization and/or second-order correction.
 Total Energy, E(TD-HF/TD-DFT) =  -920.877964149    
 Copying the excited state density for this state as the 1-particle RhoCI density.
 
 Excited State   2:      Singlet-A      3.8842 eV  319.20 nm  f=0.0001  <S**2>=0.000
      74 -> 76         0.51254
      75 -> 77         0.48255
 
 Excited State   3:      Singlet-A      4.1182 eV  301.06 nm  f=0.0103  <S**2>=0.000
      72 -> 76        -0.12327
      72 -> 78        -0.12060
      73 -> 79        -0.10656
      74 -> 76        -0.43698
      75 -> 77         0.48046
      75 -> 79         0.12526
 
 Excited State   4:      Singlet-A      4.2206 eV  293.76 nm  f=0.0492  <S**2>=0.000
      72 -> 77         0.10851
      73 -> 76        -0.14273
      74 -> 77         0.61663
      74 -> 79         0.10229
      75 -> 78         0.23103
 
 Excited State   5:      Singlet-A      4.4652 eV  277.67 nm  f=0.0413  <S**2>=0.000
      72 -> 77        -0.14938
      73 -> 76         0.49276
      74 -> 77         0.28166
      74 -> 79        -0.13617
      75 -> 76        -0.10167
      75 -> 78        -0.34864
 
 Excited State   6:      Singlet-A      4.4912 eV  276.06 nm  f=0.0000  <S**2>=0.000
      72 -> 76         0.48426
      73 -> 77        -0.18725
      74 -> 76        -0.17021
      74 -> 78        -0.22321
      75 -> 77         0.13728
      75 -> 79        -0.35748
 
 Excited State   7:      Singlet-A      4.7940 eV  258.62 nm  f=0.0054  <S**2>=0.000
      72 -> 76         0.40594
      73 -> 77         0.53043
      75 -> 79         0.21681
 
 Excited State   8:      Singlet-A      4.8119 eV  257.66 nm  f=0.0170  <S**2>=0.000
      72 -> 77         0.50835
      73 -> 76         0.39125
      75 -> 78         0.27273
 
 Excited State   9:      Singlet-A      4.9014 eV  252.96 nm  f=0.0020  <S**2>=0.000
      73 -> 77         0.16175
      74 -> 78         0.52470
      75 -> 79        -0.44124
 
 Excited State  10:      Singlet-A      4.9338 eV  251.30 nm  f=0.0224  <S**2>=0.000
      72 -> 77         0.27876
      74 -> 79         0.51998
      75 -> 78        -0.37927
 
 Excited State  11:      Singlet-A      5.3663 eV  231.04 nm  f=0.0347  <S**2>=0.000
      71 -> 76        -0.46890
      75 -> 80         0.48810
 
 Excited State  12:      Singlet-A      5.5629 eV  222.88 nm  f=0.0786  <S**2>=0.000
      70 -> 76        -0.29073
      71 -> 77         0.36453
      72 -> 76        -0.11655
      73 -> 77         0.18391
      74 -> 78        -0.17768
      74 -> 80         0.28009
      75 -> 79        -0.11978
      75 -> 81         0.31529
 
 Excited State  13:      Singlet-A      5.5721 eV  222.51 nm  f=0.1170  <S**2>=0.000
      71 -> 76         0.48891
      74 -> 79        -0.10026
      75 -> 80         0.44555
 
 Excited State  14:      Singlet-A      5.7485 eV  215.68 nm  f=0.1700  <S**2>=0.000
      72 -> 77         0.14397
      72 -> 79        -0.41221
      73 -> 76        -0.11539
      73 -> 78         0.48842
      74 -> 79        -0.16618
      75 -> 78        -0.12998
 
 Excited State  15:      Singlet-A      5.7525 eV  215.53 nm  f=0.0027  <S**2>=0.000
      72 -> 78         0.52110
      73 -> 79        -0.25016
      74 -> 80        -0.33040
      75 -> 81         0.21166
 
 Excited State  16:      Singlet-A      5.7737 eV  214.74 nm  f=0.0246  <S**2>=0.000
      70 -> 76         0.15709
      71 -> 77         0.20802
      72 -> 78         0.26695
      73 -> 79        -0.26170
      74 -> 80         0.40943
      75 -> 81        -0.30962
 SavETr:  write IOETrn=   770 NScale= 10 NData=  16 NLR=1 NState=   16 LETran=     298.

 **********************************************************************

            Population analysis using the SCF Density.

 **********************************************************************

 Orbital symmetries:
       Occupied  (A) (A) (A) (A) (A) (A) (A) (A) (A) (A) (A) (A)
                 (A) (A) (A) (A) (A) (A) (A) (A) (A) (A) (A) (A)
                 (A) (A) (A) (A) (A) (A) (A) (A) (A) (A) (A) (A)
                 (A) (A) (A) (A) (A) (A) (A) (A) (A) (A) (A) (A)
                 (A) (A) (A) (A) (A) (A) (A) (A) (A) (A) (A) (A)
                 (A) (A) (A) (A) (A) (A) (A) (A) (A) (A) (A) (A)
                 (A) (A) (A)
       Virtual   (A) (A) (A) (A) (A) (A) (A) (A) (A) (A) (A) (A)
                 (A) (A) (A) (A) (A) (A) (A) (A) (A) (A) (A) (A)
                 (A) (A) (A) (A) (A) (A) (A) (A) (A) (A) (A) (A)
                 (A) (A) (A) (A) (A) (A) (A) (A) (A) (A) (A) (A)
                 (A) (A) (A) (A) (A) (A) (A) (A) (A) (A) (A) (A)
                 (A) (A) (A) (A) (A) (A) (A) (A) (A) (A) (A) (A)
                 (A) (A) (A) (A) (A) (A) (A) (A) (A) (A) (A) (A)
                 (A) (A) (A) (A) (A) (A) (A) (A) (A) (A) (A) (A)
                 (A) (A) (A) (A) (A) (A) (A) (A) (A) (A) (A) (A)
                 (A) (A) (A) (A) (A) (A) (A) (A) (A) (A) (A) (A)
                 (A) (A) (A) (A) (A) (A) (A) (A) (A) (A) (A) (A)
                 (A) (A) (A) (A) (A) (A) (A) (A) (A) (A) (A) (A)
                 (A) (A) (A) (A) (A) (A) (A) (A) (A) (A) (A) (A)
                 (A) (A) (A) (A) (A) (A) (A) (A) (A) (A) (A) (A)
                 (A) (A) (A) (A) (A) (A) (A) (A) (A) (A) (A) (A)
                 (A) (A) (A) (A) (A) (A) (A) (A) (A) (A) (A) (A)
                 (A) (A) (A) (A) (A) (A) (A) (A) (A) (A) (A) (A)
                 (A) (A) (A) (A) (A) (A) (A) (A) (A) (A) (A) (A)
                 (A) (A) (A) (A) (A) (A) (A) (A) (A) (A) (A) (A)
                 (A) (A) (A) (A) (A) (A) (A) (A) (A) (A) (A) (A)
                 (A) (A) (A) (A) (A) (A) (A) (A) (A) (A) (A) (A)
                 (A) (A) (A) (A) (A) (A) (A) (A) (A) (A) (A) (A)
                 (A) (A) (A) (A) (A) (A) (A) (A) (A) (A) (A) (A)
                 (A) (A) (A) (A) (A) (A) (A)
 The electronic state is 1-A.
 Alpha  occ. eigenvalues --  -19.17496 -19.17496 -10.24601 -10.24601 -10.19223
 Alpha  occ. eigenvalues --  -10.19222 -10.19139 -10.19139 -10.19073 -10.19073
 Alpha  occ. eigenvalues --  -10.18781 -10.18780 -10.18779 -10.18751 -10.18244
 Alpha  occ. eigenvalues --  -10.18244 -10.18106 -10.18106 -10.17986 -10.17986
 Alpha  occ. eigenvalues --  -10.17655 -10.17655  -1.05666  -1.05523  -0.86960
 Alpha  occ. eigenvalues --   -0.85900  -0.81369  -0.80826  -0.78619  -0.75066
 Alpha  occ. eigenvalues --   -0.72927  -0.72916  -0.71931  -0.70280  -0.62945
 Alpha  occ. eigenvalues --   -0.62340  -0.61224  -0.61032  -0.59750  -0.56732
 Alpha  occ. eigenvalues --   -0.54549  -0.54419  -0.51509  -0.49994  -0.49159
 Alpha  occ. eigenvalues --   -0.48737  -0.46381  -0.46265  -0.44143  -0.43003
 Alpha  occ. eigenvalues --   -0.42381  -0.42194  -0.41544  -0.41495  -0.41226
 Alpha  occ. eigenvalues --   -0.39734  -0.39437  -0.39313  -0.38672  -0.36592
 Alpha  occ. eigenvalues --   -0.36062  -0.35723  -0.35178  -0.34150  -0.33918
 Alpha  occ. eigenvalues --   -0.33211  -0.31284  -0.30199  -0.29959  -0.27546
 Alpha  occ. eigenvalues --   -0.26109  -0.22638  -0.22602  -0.20257  -0.19214
 Alpha virt. eigenvalues --   -0.03517  -0.02516   0.00389   0.00813   0.03439
 Alpha virt. eigenvalues --    0.04649   0.07034   0.07050   0.10155   0.10493
 Alpha virt. eigenvalues --    0.11135   0.11332   0.11932   0.11997   0.14399
 Alpha virt. eigenvalues --    0.15440   0.17521   0.17562   0.18760   0.19005
 Alpha virt. eigenvalues --    0.19947   0.19989   0.20569   0.21290   0.22687
 Alpha virt. eigenvalues --    0.24183   0.26338   0.27530   0.27833   0.29442
 Alpha virt. eigenvalues --    0.30952   0.31710   0.32314   0.33029   0.33384
 Alpha virt. eigenvalues --    0.34631   0.36572   0.36816   0.37267   0.39789
 Alpha virt. eigenvalues --    0.40968   0.47144   0.49370   0.49596   0.50242
 Alpha virt. eigenvalues --    0.51344   0.52174   0.52395   0.52436   0.53739
 Alpha virt. eigenvalues --    0.53945   0.54091   0.54929   0.55428   0.55706
 Alpha virt. eigenvalues --    0.55943   0.56661   0.57144   0.57208   0.59351
 Alpha virt. eigenvalues --    0.59833   0.59935   0.60635   0.60786   0.61134
 Alpha virt. eigenvalues --    0.61750   0.61925   0.62091   0.62171   0.62940
 Alpha virt. eigenvalues --    0.63013   0.63982   0.64174   0.64677   0.65505
 Alpha virt. eigenvalues --    0.66763   0.66980   0.67650   0.68572   0.68588
 Alpha virt. eigenvalues --    0.70759   0.72538   0.74899   0.75610   0.76469
 Alpha virt. eigenvalues --    0.79756   0.80303   0.81725   0.82295   0.83238
 Alpha virt. eigenvalues --    0.83773   0.84429   0.84877   0.85282   0.85538
 Alpha virt. eigenvalues --    0.86320   0.86729   0.87240   0.87434   0.88557
 Alpha virt. eigenvalues --    0.88595   0.90036   0.90862   0.91404   0.92134
 Alpha virt. eigenvalues --    0.94464   0.95067   0.95925   0.97248   0.98389
 Alpha virt. eigenvalues --    0.99123   1.00332   1.01818   1.03440   1.03887
 Alpha virt. eigenvalues --    1.04452   1.04928   1.06276   1.07218   1.08173
 Alpha virt. eigenvalues --    1.08923   1.10227   1.12347   1.13973   1.15028
 Alpha virt. eigenvalues --    1.15206   1.18668   1.20590   1.20686   1.22336
 Alpha virt. eigenvalues --    1.25296   1.25396   1.25890   1.26697   1.27033
 Alpha virt. eigenvalues --    1.28678   1.29315   1.33014   1.33131   1.37664
 Alpha virt. eigenvalues --    1.38048   1.40496   1.41267   1.41947   1.42229
 Alpha virt. eigenvalues --    1.42827   1.45220   1.46145   1.46441   1.47406
 Alpha virt. eigenvalues --    1.47820   1.48052   1.48201   1.48589   1.50396
 Alpha virt. eigenvalues --    1.50512   1.51152   1.51462   1.52224   1.54146
 Alpha virt. eigenvalues --    1.60997   1.65971   1.67915   1.70965   1.75201
 Alpha virt. eigenvalues --    1.75409   1.76212   1.77293   1.78046   1.78862
 Alpha virt. eigenvalues --    1.79593   1.79675   1.82526   1.84082   1.84991
 Alpha virt. eigenvalues --    1.86128   1.87418   1.89004   1.90810   1.91020
 Alpha virt. eigenvalues --    1.92227   1.92586   1.93495   1.93820   1.94981
 Alpha virt. eigenvalues --    1.95985   1.97142   1.98002   1.99715   2.01332
 Alpha virt. eigenvalues --    2.02386   2.03583   2.04879   2.05088   2.06585
 Alpha virt. eigenvalues --    2.07184   2.07885   2.08349   2.14689   2.15328
 Alpha virt. eigenvalues --    2.17221   2.17647   2.20518   2.21264   2.22313
 Alpha virt. eigenvalues --    2.22595   2.25809   2.26770   2.28625   2.29554
 Alpha virt. eigenvalues --    2.30719   2.31417   2.32760   2.34118   2.34416
 Alpha virt. eigenvalues --    2.35800   2.35874   2.36376   2.36470   2.37489
 Alpha virt. eigenvalues --    2.39152   2.40888   2.46963   2.48580   2.50480
 Alpha virt. eigenvalues --    2.53861   2.58046   2.58158   2.60239   2.61638
 Alpha virt. eigenvalues --    2.62076   2.63720   2.64561   2.64931   2.65597
 Alpha virt. eigenvalues --    2.66521   2.67544   2.68416   2.69884   2.75220
 Alpha virt. eigenvalues --    2.75895   2.77531   2.79909   2.80784   2.82875
 Alpha virt. eigenvalues --    2.84982   2.87966   2.89475   2.89482   2.91059
 Alpha virt. eigenvalues --    2.91982   2.97211   3.02553   3.04955   3.07988
 Alpha virt. eigenvalues --    3.15960   3.17674   3.37041   3.39341   3.47338
 Alpha virt. eigenvalues --    3.50739   3.97341   4.06689   4.09512   4.09898
 Alpha virt. eigenvalues --    4.10870   4.11536   4.14484   4.14991   4.16194
 Alpha virt. eigenvalues --    4.17292   4.23370   4.30064   4.30794   4.32836
 Alpha virt. eigenvalues --    4.40648   4.43577   4.44922   4.50744   4.61363
 Alpha virt. eigenvalues --    4.64633   4.84328   4.92463
          Condensed to atoms (all electrons):
               1          2          3          4          5          6
     1  C    4.903910   0.513593   0.001997  -0.038618  -0.019089   0.493319
     2  C    0.513593   5.146691   0.444223  -0.052135  -0.071112  -0.019559
     3  C    0.001997   0.444223   4.762480   0.445663  -0.023578  -0.039738
     4  C   -0.038618  -0.052135   0.445663   4.769210   0.447852  -0.004996
     5  C   -0.019089  -0.071112  -0.023578   0.447852   5.100239   0.518215
     6  C    0.493319  -0.019559  -0.039738  -0.004996   0.518215   4.909983
     7  H    0.356681  -0.037215   0.002685   0.001040   0.004392  -0.042588
     8  H   -0.047484   0.345955  -0.030829   0.005692   0.000448   0.004507
     9  C    0.008424  -0.094913   0.415231  -0.013056   0.015072  -0.000669
    10  C   -0.000758   0.016767  -0.018321   0.426300  -0.093365   0.008487
    11  H    0.004696   0.000490   0.004330  -0.043221   0.353716  -0.045818
    12  H   -0.041203   0.004175   0.001000   0.002793  -0.037445   0.356273
    13  C    0.000072  -0.001361  -0.055200   0.006167   0.009333  -0.000409
    14  C   -0.000360   0.013928   0.020210  -0.058662  -0.000907   0.000052
    15  H    0.000017  -0.000203   0.004248  -0.036513  -0.008083   0.000173
    16  H   -0.000000   0.000015   0.001189   0.002060  -0.000206   0.000004
    17  C    0.000000  -0.000000  -0.000000   0.000000  -0.000000  -0.000000
    18  C    0.000000   0.000001  -0.000002  -0.000000   0.000000  -0.000000
    19  C   -0.000001   0.000005  -0.000060   0.000001  -0.000000   0.000000
    20  C    0.000028   0.000174   0.000360  -0.000060  -0.000002  -0.000000
    21  C   -0.000001   0.000092   0.000174   0.000005   0.000001  -0.000000
    22  C   -0.000000  -0.000001   0.000028  -0.000001   0.000000   0.000000
    23  H   -0.000000  -0.000000   0.000000   0.000000  -0.000000  -0.000000
    24  H   -0.000000  -0.000000   0.000000   0.000000   0.000000   0.000000
    25  H   -0.000000  -0.000000  -0.000000   0.000000  -0.000000   0.000000
    26  C   -0.000000  -0.000034   0.000033   0.000000  -0.000000   0.000000
    27  C    0.000862  -0.024830  -0.049472   0.008884  -0.000087  -0.000008
    28  H    0.000002  -0.000018   0.000241  -0.000037  -0.000003   0.000000
    29  H   -0.000000  -0.000000  -0.000000   0.000000   0.000000   0.000000
    30  C    0.000059  -0.001822  -0.005856   0.000040  -0.000013  -0.000001
    31  C   -0.000014  -0.000541   0.000369   0.000007  -0.000000   0.000000
    32  H    0.000000   0.000006  -0.000003  -0.000000   0.000000  -0.000000
    33  O    0.000000  -0.000048   0.002373   0.000206   0.000000  -0.000000
    34  H   -0.000000   0.000006   0.000140  -0.000118  -0.000001   0.000000
    35  O   -0.000034   0.003744  -0.002801  -0.000326   0.000002   0.000001
    36  H    0.000003  -0.000023   0.000045   0.000006  -0.000000  -0.000000
               7          8          9         10         11         12
     1  C    0.356681  -0.047484   0.008424  -0.000758   0.004696  -0.041203
     2  C   -0.037215   0.345955  -0.094913   0.016767   0.000490   0.004175
     3  C    0.002685  -0.030829   0.415231  -0.018321   0.004330   0.001000
     4  C    0.001040   0.005692  -0.013056   0.426300  -0.043221   0.002793
     5  C    0.004392   0.000448   0.015072  -0.093365   0.353716  -0.037445
     6  C   -0.042588   0.004507  -0.000669   0.008487  -0.045818   0.356273
     7  H    0.600775  -0.005437  -0.000196   0.000009  -0.000196  -0.004840
     8  H   -0.005437   0.589402  -0.016640  -0.000185   0.000019  -0.000182
     9  C   -0.000196  -0.016640   5.316467  -0.067542  -0.000166   0.000013
    10  C    0.000009  -0.000185  -0.067542   5.146963  -0.008742  -0.000194
    11  H   -0.000196   0.000019  -0.000166  -0.008742   0.609073  -0.005476
    12  H   -0.004840  -0.000182   0.000013  -0.000194  -0.005476   0.600681
    13  C   -0.000001   0.000012  -0.043840   0.446901   0.000293   0.000004
    14  C    0.000003   0.000097   0.443108   0.013345   0.000007  -0.000000
    15  H   -0.000000   0.000002   0.000796   0.349297   0.006703  -0.000012
    16  H   -0.000000   0.000000   0.004009  -0.027857  -0.000012  -0.000000
    17  C    0.000000   0.000000  -0.000008   0.000000   0.000000   0.000000
    18  C    0.000000  -0.000003  -0.000087  -0.000000  -0.000000   0.000000
    19  C    0.000000  -0.000037   0.008886   0.000000   0.000000   0.000000
    20  C   -0.000000   0.000242  -0.049480   0.000033  -0.000000   0.000000
    21  C   -0.000000  -0.000019  -0.024837  -0.000034  -0.000000  -0.000000
    22  C   -0.000000   0.000002   0.000863  -0.000000  -0.000000  -0.000000
    23  H   -0.000000  -0.000000   0.000012  -0.000000   0.000000   0.000000
    24  H   -0.000000  -0.000000   0.000000  -0.000000  -0.000000   0.000000
    25  H   -0.000000   0.000000   0.000001  -0.000000   0.000000  -0.000000
    26  C   -0.000000  -0.000031  -0.000835   0.000000  -0.000000  -0.000000
    27  C   -0.000008   0.013770   0.250912  -0.000835   0.000001   0.000000
    28  H    0.000000  -0.000006   0.013764  -0.000031   0.000000  -0.000000
    29  H    0.000000   0.000000  -0.000008  -0.000000  -0.000000  -0.000000
    30  C    0.000001   0.004731  -0.075158   0.000028   0.000000   0.000000
    31  C   -0.000000   0.000690   0.008297  -0.000000   0.000000   0.000000
    32  H    0.000000   0.000005  -0.000168   0.000000  -0.000000   0.000000
    33  O   -0.000000  -0.000001  -0.059841   0.004814  -0.000000   0.000000
    34  H    0.000000   0.000000   0.007577   0.000876  -0.000000  -0.000000
    35  O   -0.000002  -0.001593   0.000264   0.000006   0.000000  -0.000000
    36  H   -0.000000   0.000052  -0.000278  -0.000000  -0.000000  -0.000000
              13         14         15         16         17         18
     1  C    0.000072  -0.000360   0.000017  -0.000000   0.000000   0.000000
     2  C   -0.001361   0.013928  -0.000203   0.000015  -0.000000   0.000001
     3  C   -0.055200   0.020210   0.004248   0.001189  -0.000000  -0.000002
     4  C    0.006167  -0.058662  -0.036513   0.002060   0.000000  -0.000000
     5  C    0.009333  -0.000907  -0.008083  -0.000206  -0.000000   0.000000
     6  C   -0.000409   0.000052   0.000173   0.000004  -0.000000  -0.000000
     7  H   -0.000001   0.000003  -0.000000  -0.000000   0.000000   0.000000
     8  H    0.000012   0.000097   0.000002   0.000000   0.000000  -0.000003
     9  C   -0.043840   0.443108   0.000796   0.004009  -0.000008  -0.000087
    10  C    0.446901   0.013345   0.349297  -0.027857   0.000000  -0.000000
    11  H    0.000293   0.000007   0.006703  -0.000012   0.000000  -0.000000
    12  H    0.000004  -0.000000  -0.000012  -0.000000   0.000000   0.000000
    13  C    5.186125   0.410609  -0.040037   0.338997   0.000000  -0.000000
    14  C    0.410609   4.700326   0.002883  -0.040757  -0.000001  -0.000013
    15  H   -0.040037   0.002883   0.595030  -0.005358  -0.000000  -0.000000
    16  H    0.338997  -0.040757  -0.005358   0.606680  -0.000000   0.000000
    17  C    0.000000  -0.000001  -0.000000  -0.000000   4.909990   0.518208
    18  C   -0.000000  -0.000013  -0.000000   0.000000   0.518208   5.100263
    19  C    0.000007   0.000040   0.000000  -0.000000  -0.004998   0.447844
    20  C    0.000369  -0.005860   0.000000  -0.000003  -0.039738  -0.023576
    21  C   -0.000541  -0.001827  -0.000000   0.000006  -0.019560  -0.071112
    22  C   -0.000014   0.000059  -0.000000   0.000000   0.493319  -0.019086
    23  H    0.000000   0.000000  -0.000000  -0.000000   0.000173  -0.008083
    24  H    0.000000   0.000000   0.000000   0.000000   0.356273  -0.037445
    25  H    0.000000   0.000000   0.000000  -0.000000  -0.045817   0.353716
    26  C   -0.000000   0.000028  -0.000000   0.000000   0.008487  -0.093370
    27  C    0.008297  -0.075157   0.000012  -0.000168  -0.000669   0.015075
    28  H    0.000691   0.004738  -0.000000   0.000005   0.004507   0.000448
    29  H   -0.000000   0.000001  -0.000000   0.000000  -0.042587   0.004392
    30  C    0.000034  -0.000202   0.000000  -0.000000   0.000052  -0.000907
    31  C    0.000005   0.000034   0.000000  -0.000000  -0.000409   0.009334
    32  H   -0.000000  -0.000000  -0.000000   0.000000   0.000004  -0.000206
    33  O   -0.064426   0.291842  -0.000057  -0.005226   0.000001   0.000002
    34  H   -0.006600  -0.032456  -0.000015   0.007863  -0.000000  -0.000000
    35  O   -0.000004  -0.000322   0.000000   0.000000  -0.000000   0.000000
    36  H   -0.000001  -0.000005   0.000000  -0.000000   0.000000  -0.000001
              19         20         21         22         23         24
     1  C   -0.000001   0.000028  -0.000001  -0.000000  -0.000000  -0.000000
     2  C    0.000005   0.000174   0.000092  -0.000001  -0.000000  -0.000000
     3  C   -0.000060   0.000360   0.000174   0.000028   0.000000   0.000000
     4  C    0.000001  -0.000060   0.000005  -0.000001   0.000000   0.000000
     5  C   -0.000000  -0.000002   0.000001   0.000000  -0.000000   0.000000
     6  C    0.000000  -0.000000  -0.000000   0.000000  -0.000000   0.000000
     7  H    0.000000  -0.000000  -0.000000  -0.000000  -0.000000  -0.000000
     8  H   -0.000037   0.000242  -0.000019   0.000002  -0.000000  -0.000000
     9  C    0.008886  -0.049480  -0.024837   0.000863   0.000012   0.000000
    10  C    0.000000   0.000033  -0.000034  -0.000000  -0.000000  -0.000000
    11  H    0.000000  -0.000000  -0.000000  -0.000000   0.000000  -0.000000
    12  H    0.000000   0.000000  -0.000000  -0.000000   0.000000   0.000000
    13  C    0.000007   0.000369  -0.000541  -0.000014   0.000000   0.000000
    14  C    0.000040  -0.005860  -0.001827   0.000059   0.000000   0.000000
    15  H    0.000000   0.000000  -0.000000  -0.000000  -0.000000   0.000000
    16  H   -0.000000  -0.000003   0.000006   0.000000  -0.000000   0.000000
    17  C   -0.004998  -0.039738  -0.019560   0.493319   0.000173   0.356273
    18  C    0.447844  -0.023576  -0.071112  -0.019086  -0.008083  -0.037445
    19  C    4.769238   0.445657  -0.052149  -0.038618  -0.036513   0.002793
    20  C    0.445657   4.762436   0.444239   0.002007   0.004247   0.001000
    21  C   -0.052149   0.444239   5.146684   0.513578  -0.000203   0.004175
    22  C   -0.038618   0.002007   0.513578   4.903931   0.000017  -0.041203
    23  H   -0.036513   0.004247  -0.000203   0.000017   0.595030  -0.000012
    24  H    0.002793   0.001000   0.004175  -0.041203  -0.000012   0.600685
    25  H   -0.043221   0.004330   0.000490   0.004696   0.006703  -0.005476
    26  C    0.426292  -0.018318   0.016768  -0.000758   0.349299  -0.000194
    27  C   -0.013046   0.415250  -0.094921   0.008425   0.000796   0.000013
    28  H    0.005692  -0.030826   0.345952  -0.047484   0.000002  -0.000182
    29  H    0.001040   0.002684  -0.037215   0.356679  -0.000000  -0.004841
    30  C   -0.058669   0.020207   0.013931  -0.000360   0.002883  -0.000000
    31  C    0.006175  -0.055201  -0.001362   0.000072  -0.040037   0.000004
    32  H    0.002060   0.001189   0.000015  -0.000000  -0.005358  -0.000000
    33  O   -0.000327  -0.002809   0.003750  -0.000035   0.000000  -0.000000
    34  H    0.000006   0.000045  -0.000023   0.000003   0.000000  -0.000000
    35  O    0.000206   0.002373  -0.000048   0.000000  -0.000057   0.000000
    36  H   -0.000118   0.000140   0.000006  -0.000000  -0.000015  -0.000000
              25         26         27         28         29         30
     1  C   -0.000000  -0.000000   0.000862   0.000002  -0.000000   0.000059
     2  C   -0.000000  -0.000034  -0.024830  -0.000018  -0.000000  -0.001822
     3  C   -0.000000   0.000033  -0.049472   0.000241  -0.000000  -0.005856
     4  C    0.000000   0.000000   0.008884  -0.000037   0.000000   0.000040
     5  C   -0.000000  -0.000000  -0.000087  -0.000003   0.000000  -0.000013
     6  C    0.000000   0.000000  -0.000008   0.000000   0.000000  -0.000001
     7  H   -0.000000  -0.000000  -0.000008   0.000000   0.000000   0.000001
     8  H    0.000000  -0.000031   0.013770  -0.000006   0.000000   0.004731
     9  C    0.000001  -0.000835   0.250912   0.013764  -0.000008  -0.075158
    10  C   -0.000000   0.000000  -0.000835  -0.000031  -0.000000   0.000028
    11  H    0.000000  -0.000000   0.000001   0.000000  -0.000000   0.000000
    12  H   -0.000000  -0.000000   0.000000  -0.000000  -0.000000   0.000000
    13  C    0.000000  -0.000000   0.008297   0.000691  -0.000000   0.000034
    14  C    0.000000   0.000028  -0.075157   0.004738   0.000001  -0.000202
    15  H    0.000000  -0.000000   0.000012  -0.000000  -0.000000   0.000000
    16  H   -0.000000   0.000000  -0.000168   0.000005   0.000000  -0.000000
    17  C   -0.045817   0.008487  -0.000669   0.004507  -0.042587   0.000052
    18  C    0.353716  -0.093370   0.015075   0.000448   0.004392  -0.000907
    19  C   -0.043221   0.426292  -0.013046   0.005692   0.001040  -0.058669
    20  C    0.004330  -0.018318   0.415250  -0.030826   0.002684   0.020207
    21  C    0.000490   0.016768  -0.094921   0.345952  -0.037215   0.013931
    22  C    0.004696  -0.000758   0.008425  -0.047484   0.356679  -0.000360
    23  H    0.006703   0.349299   0.000796   0.000002  -0.000000   0.002883
    24  H   -0.005476  -0.000194   0.000013  -0.000182  -0.004841  -0.000000
    25  H    0.609071  -0.008742  -0.000166   0.000019  -0.000196   0.000007
    26  C   -0.008742   5.146969  -0.067549  -0.000185   0.000009   0.013345
    27  C   -0.000166  -0.067549   5.316524  -0.016642  -0.000196   0.443091
    28  H    0.000019  -0.000185  -0.016642   0.589400  -0.005436   0.000097
    29  H   -0.000196   0.000009  -0.000196  -0.005436   0.600779   0.000003
    30  C    0.000007   0.013345   0.443091   0.000097   0.000003   4.700289
    31  C    0.000293   0.446898  -0.043847   0.000012  -0.000001   0.410606
    32  H   -0.000012  -0.027857   0.004009   0.000000  -0.000000  -0.040756
    33  O    0.000000   0.000006   0.000264  -0.001595  -0.000002  -0.000322
    34  H   -0.000000  -0.000000  -0.000278   0.000052  -0.000000  -0.000006
    35  O   -0.000000   0.004814  -0.059843  -0.000001  -0.000000   0.291889
    36  H   -0.000000   0.000876   0.007578   0.000000   0.000000  -0.032461
              31         32         33         34         35         36
     1  C   -0.000014   0.000000   0.000000  -0.000000  -0.000034   0.000003
     2  C   -0.000541   0.000006  -0.000048   0.000006   0.003744  -0.000023
     3  C    0.000369  -0.000003   0.002373   0.000140  -0.002801   0.000045
     4  C    0.000007  -0.000000   0.000206  -0.000118  -0.000326   0.000006
     5  C   -0.000000   0.000000   0.000000  -0.000001   0.000002  -0.000000
     6  C    0.000000  -0.000000  -0.000000   0.000000   0.000001  -0.000000
     7  H   -0.000000   0.000000  -0.000000   0.000000  -0.000002  -0.000000
     8  H    0.000690   0.000005  -0.000001   0.000000  -0.001593   0.000052
     9  C    0.008297  -0.000168  -0.059841   0.007577   0.000264  -0.000278
    10  C   -0.000000   0.000000   0.004814   0.000876   0.000006  -0.000000
    11  H    0.000000  -0.000000  -0.000000  -0.000000   0.000000  -0.000000
    12  H    0.000000   0.000000   0.000000  -0.000000  -0.000000  -0.000000
    13  C    0.000005  -0.000000  -0.064426  -0.006600  -0.000004  -0.000001
    14  C    0.000034  -0.000000   0.291842  -0.032456  -0.000322  -0.000005
    15  H    0.000000  -0.000000  -0.000057  -0.000015   0.000000   0.000000
    16  H   -0.000000   0.000000  -0.005226   0.007863   0.000000  -0.000000
    17  C   -0.000409   0.000004   0.000001  -0.000000  -0.000000   0.000000
    18  C    0.009334  -0.000206   0.000002  -0.000000   0.000000  -0.000001
    19  C    0.006175   0.002060  -0.000327   0.000006   0.000206  -0.000118
    20  C   -0.055201   0.001189  -0.002809   0.000045   0.002373   0.000140
    21  C   -0.001362   0.000015   0.003750  -0.000023  -0.000048   0.000006
    22  C    0.000072  -0.000000  -0.000035   0.000003   0.000000  -0.000000
    23  H   -0.040037  -0.005358   0.000000   0.000000  -0.000057  -0.000015
    24  H    0.000004  -0.000000  -0.000000  -0.000000   0.000000  -0.000000
    25  H    0.000293  -0.000012   0.000000  -0.000000  -0.000000  -0.000000
    26  C    0.446898  -0.027857   0.000006  -0.000000   0.004814   0.000876
    27  C   -0.043847   0.004009   0.000264  -0.000278  -0.059843   0.007578
    28  H    0.000012   0.000000  -0.001595   0.000052  -0.000001   0.000000
    29  H   -0.000001  -0.000000  -0.000002  -0.000000  -0.000000   0.000000
    30  C    0.410606  -0.040756  -0.000322  -0.000006   0.291889  -0.032461
    31  C    5.186150   0.338994  -0.000004  -0.000001  -0.064433  -0.006602
    32  H    0.338994   0.606681   0.000000  -0.000000  -0.005225   0.007863
    33  O   -0.000004   0.000000   8.228086   0.243767  -0.000043  -0.000001
    34  H   -0.000001  -0.000000   0.243767   0.372797  -0.000001   0.000000
    35  O   -0.064433  -0.005225  -0.000043  -0.000001   8.228020   0.243773
    36  H   -0.006602   0.007863  -0.000001   0.000000   0.243773   0.372795
 Mulliken charges:
               1
     1  C   -0.136101
     2  C   -0.186050
     3  C    0.118841
     4  C    0.131818
     5  C   -0.195379
     6  C   -0.137230
     7  H    0.124897
     8  H    0.136822
     9  C   -0.045974
    10  C   -0.195959
    11  H    0.124302
    12  H    0.124413
    13  C   -0.195482
    14  C    0.315218
    15  H    0.131117
    16  H    0.118759
    17  C   -0.137227
    18  C   -0.195392
    19  C    0.131814
    20  C    0.118861
    21  C   -0.186016
    22  C   -0.136119
    23  H    0.131117
    24  H    0.124410
    25  H    0.124302
    26  C   -0.195948
    27  C   -0.046038
    28  H    0.136823
    29  H    0.124894
    30  C    0.315241
    31  C   -0.195488
    32  H    0.118759
    33  O   -0.640377
    34  H    0.406367
    35  O   -0.640360
    36  H    0.406369
 Sum of Mulliken charges =  -0.00000
 Mulliken charges with hydrogens summed into heavy atoms:
               1
     1  C   -0.011204
     2  C   -0.049228
     3  C    0.118841
     4  C    0.131818
     5  C   -0.071077
     6  C   -0.012817
     9  C   -0.045974
    10  C   -0.064842
    13  C   -0.076723
    14  C    0.315218
    17  C   -0.012817
    18  C   -0.071091
    19  C    0.131814
    20  C    0.118861
    21  C   -0.049193
    22  C   -0.011225
    26  C   -0.064831
    27  C   -0.046038
    30  C    0.315241
    31  C   -0.076729
    33  O   -0.234010
    35  O   -0.233991
 Electronic spatial extent (au):  <R**2>=           5958.0566
 Charge=              0.0000 electrons
 Dipole moment (field-independent basis, Debye):
    X=             -0.0001    Y=              0.0002    Z=              1.1910  Tot=              1.1910
 Quadrupole moment (field-independent basis, Debye-Ang):
   XX=           -116.0008   YY=           -104.4654   ZZ=           -120.9934
   XY=              7.0068   XZ=             -0.0004   YZ=             -0.0001
 Traceless Quadrupole moment (field-independent basis, Debye-Ang):
   XX=             -2.1809   YY=              9.3544   ZZ=             -7.1735
   XY=              7.0068   XZ=             -0.0004   YZ=             -0.0001
 Octapole moment (field-independent basis, Debye-Ang**2):
  XXX=              0.0069  YYY=              0.0133  ZZZ=             35.9300  XYY=             -0.0084
  XXY=             -0.0027  XXZ=            -16.7708  XZZ=             -0.0024  YZZ=             -0.0105
  YYZ=             43.0234  XYZ=             27.5198
 Hexadecapole moment (field-independent basis, Debye-Ang**3):
 XXXX=          -4827.2676 YYYY=          -1536.2608 ZZZZ=          -1171.4702 XXXY=             83.0904
 XXXZ=              0.0197 YYYX=             29.1909 YYYZ=             -0.0082 ZZZX=             -0.0217
 ZZZY=             -0.0239 XXYY=          -1109.5685 XXZZ=          -1062.9518 YYZZ=           -346.3403
 XXYZ=              0.0095 YYXZ=             -0.0089 ZZXY=            -25.2323
 N-N= 1.672883505805D+03 E-N=-5.485972312946D+03  KE= 9.123190883790D+02
 Unable to Open any file for archive entry.
 1\1\GINC-CCC079\SP\RB3LYP TD-FC\6-31G(d)\C20H14O2\ROOT\20-Feb-2025\0\\
 # td=(nstat=16) b3lyp/6-31g(d)\\binol | No.17\\0,1\C,0,-2.78629,-1.857
 47,1.684551\C,0,-1.696859,-1.37384,0.995643\C,0,-1.782354,-0.181693,0.
 223246\C,0,-3.039926,0.5093,0.197563\C,0,-4.14602,-0.019468,0.915042\C
 ,0,-4.028579,-1.180183,1.643464\H,0,-2.691395,-2.76899,2.269176\H,0,-0
 .749081,-1.898924,1.04272\C,0,-0.663358,0.34353,-0.501635\C,0,-3.14435
 7,1.71679,-0.538522\H,0,-5.091464,0.517538,0.879524\H,0,-4.880662,-1.5
 75036,2.189998\C,0,-2.061608,2.222813,-1.21329\C,0,-0.820945,1.537582,
 -1.193154\H,0,-4.095718,2.242738,-0.559889\H,0,-2.146695,3.151355,-1.7
 75972\C,0,4.028397,1.180263,1.643509\C,0,4.145863,0.019376,0.91534\C,0
 ,3.039848,-0.509409,0.197771\C,0,1.782306,0.181649,0.223224\C,0,1.6967
 98,1.374011,0.995274\C,0,2.786181,1.8577,1.684221\H,0,4.095683,-2.2429
 42,-0.559442\H,0,4.880432,1.57517,2.190079\H,0,5.091284,-0.517684,0.88
 0067\C,0,3.144339,-1.716954,-0.538228\C,0,0.663378,-0.343719,-0.501591
 \H,0,0.749082,1.899227,1.041982\H,0,2.69132,2.769409,2.268558\C,0,0.82
 1061,-1.537658,-1.193255\C,0,2.061716,-2.222906,-1.213235\H,0,2.146899
 ,-3.151412,-1.775964\O,0,0.255512,2.035235,-1.877183\H,0,-0.002943,2.8
 66572,-2.303601\O,0,-0.255218,-2.035107,-1.877647\H,0,0.003346,-2.8663
 23,-2.30423\\Version=ES64L-G16RevC.02\State=1-A\HF=-921.0151152\RMSD=5
 .086e-09\PG=C01 [X(C20H14O2)]\\@
 The archive entry for this job was punched.


 GROWING OLD ISN'T SO BAD -- WHEN YOU CONSIDER THE ALTERNATIVE.

                     -- MAURICE CHEVALIER
 Job cpu time:       0 days  0 hours 56 minutes 54.8 seconds.
 Elapsed time:       0 days  0 hours  7 minutes 18.1 seconds.
 File lengths (MBytes):  RWF=   1295 Int=      0 D2E=      0 Chk=     78 Scr=      1
 Normal termination of Gaussian 16 at Thu Feb 20 09:34:16 2025.
