 Entering Gaussian System, Link 0=/apl/gaussian/16c02/g16/._.g16
 Initial command:
 /apl/gaussian/16c02/g16/l1.exe "/lwork/users/ux8/8279360.ccpbs1/gaussian/Gau-2787938.inp" -scrdir="/lwork/users/ux8/8279360.ccpbs1/gaussian/"
 Default CPUs for threads: 72,73,74,75,76,77,78,79
 Default is to use a total of   8 processors:
                                8 via shared-memory
                                1 via Linda
 Entering Link 1 = /apl/gaussian/16c02/g16/l1.exe PID=   2787939.
  
 Copyright (c) 1988-2021, Gaussian, Inc.  All Rights Reserved.
  
 This is part of the Gaussian(R) 16 program.  It is based on
 the Gaussian(R) 09 system (copyright 2009, Gaussian, Inc.),
 the Gaussian(R) 03 system (copyright 2003, Gaussian, Inc.),
 the Gaussian(R) 98 system (copyright 1998, Gaussian, Inc.),
 the Gaussian(R) 94 system (copyright 1995, Gaussian, Inc.),
 the Gaussian 92(TM) system (copyright 1992, Gaussian, Inc.),
 the Gaussian 90(TM) system (copyright 1990, Gaussian, Inc.),
 the Gaussian 88(TM) system (copyright 1988, Gaussian, Inc.),
 the Gaussian 86(TM) system (copyright 1986, Carnegie Mellon
 University), and the Gaussian 82(TM) system (copyright 1983,
 Carnegie Mellon University). Gaussian is a federally registered
 trademark of Gaussian, Inc.
  
 This software contains proprietary and confidential information,
 including trade secrets, belonging to Gaussian, Inc.
  
 This software is provided under written license and may be
 used, copied, transmitted, or stored only in accord with that
 written license.
  
 The following legend is applicable only to US Government
 contracts under FAR:
  
                    RESTRICTED RIGHTS LEGEND
  
 Use, reproduction and disclosure by the US Government is
 subject to restrictions as set forth in subparagraphs (a)
 and (c) of the Commercial Computer Software - Restricted
 Rights clause in FAR 52.227-19.
  
 Gaussian, Inc.
 340 Quinnipiac St., Bldg. 40, Wallingford CT 06492
  
  
 ---------------------------------------------------------------
 Warning -- This program may not be used in any manner that
 competes with the business of Gaussian, Inc. or will provide
 assistance to any competitor of Gaussian, Inc.  The licensee
 of this program is prohibited from giving any competitor of
 Gaussian, Inc. access to this program.  By using this program,
 the user acknowledges that Gaussian, Inc. is engaged in the
 business of creating and licensing software in the field of
 computational chemistry and represents and warrants to the
 licensee that it is not a competitor of Gaussian, Inc. and that
 it will not use this program in any manner prohibited above.
 ---------------------------------------------------------------
  

 Cite this work as:
 Gaussian 16, Revision C.02,
 M. J. Frisch, G. W. Trucks, H. B. Schlegel, G. E. Scuseria, 
 M. A. Robb, J. R. Cheeseman, G. Scalmani, V. Barone, 
 G. A. Petersson, H. Nakatsuji, X. Li, M. Caricato, A. V. Marenich, 
 J. Bloino, B. G. Janesko, R. Gomperts, B. Mennucci, H. P. Hratchian, 
 J. V. Ortiz, A. F. Izmaylov, J. L. Sonnenberg, D. Williams-Young, 
 F. Ding, F. Lipparini, F. Egidi, J. Goings, B. Peng, A. Petrone, 
 T. Henderson, D. Ranasinghe, V. G. Zakrzewski, J. Gao, N. Rega, 
 G. Zheng, W. Liang, M. Hada, M. Ehara, K. Toyota, R. Fukuda, 
 J. Hasegawa, M. Ishida, T. Nakajima, Y. Honda, O. Kitao, H. Nakai, 
 T. Vreven, K. Throssell, J. A. Montgomery, Jr., J. E. Peralta, 
 F. Ogliaro, M. J. Bearpark, J. J. Heyd, E. N. Brothers, K. N. Kudin, 
 V. N. Staroverov, T. A. Keith, R. Kobayashi, J. Normand, 
 K. Raghavachari, A. P. Rendell, J. C. Burant, S. S. Iyengar, 
 J. Tomasi, M. Cossi, J. M. Millam, M. Klene, C. Adamo, R. Cammi, 
 J. W. Ochterski, R. L. Martin, K. Morokuma, O. Farkas, 
 J. B. Foresman, and D. J. Fox, Gaussian, Inc., Wallingford CT, 2019.
 
 ******************************************
 Gaussian 16:  ES64L-G16RevC.02  7-Dec-2021
                20-Feb-2025 
 ******************************************
 %chk=binol.006.tddft.chk
 %mem=9600MB
 SetSPE:  set environment variable "OMP_PROC_BIND" = "true"
 SetSPE:  set environment variable "OMP_PLACES" = "{72},{73},{74},{75},{76},{77},{78},{79}"
 ------------------------------
 # td=(nstat=16) b3lyp/6-31g(d)
 ------------------------------
 1/38=1,172=1/1;
 2/12=2,17=6,18=5,40=1/2;
 3/5=1,6=6,7=1,11=9,25=1,30=1,74=-5/1,2,3,8;
 4//1;
 5/5=2,38=5/2;
 8/6=1,10=2,108=16/1;
 9/41=16,42=1,70=2/14;
 6/7=2,8=2,9=2,10=2/1;
 99/5=1,9=1/99;
 ------------
 binol | No.6
 ------------
 Symbolic Z-matrix:
 Charge =  0 Multiplicity = 1
 C                    -2.95636  -1.88683  -1.41276 
 C                    -1.82518  -1.41024  -0.78853 
 C                    -1.81739  -0.16142  -0.1043 
 C                    -3.02651   0.61298  -0.15845 
 C                    -4.18477   0.08377  -0.78847 
 C                    -4.16172  -1.14806  -1.39745 
 H                    -2.91792  -2.841    -1.9323 
 H                    -0.91211  -1.98803  -0.84211 
 C                    -0.65421   0.3629    0.57387 
 C                    -3.03234   1.92841   0.36911 
 H                    -5.08944   0.68785  -0.79477 
 H                    -5.05047  -1.54177  -1.88289 
 C                    -1.89287   2.46383   0.90912 
 C                    -0.70704   1.69323   0.98795 
 H                    -3.94678   2.51453   0.32281 
 H                    -1.8884    3.48167   1.29639 
 C                     4.16171   1.14808  -1.39745 
 C                     4.18477  -0.08375  -0.78848 
 C                     3.0265   -0.61297  -0.15846 
 C                     1.81738   0.16141  -0.1043 
 C                     1.82516   1.41024  -0.78853 
 C                     2.95634   1.88684  -1.41276 
 H                     3.9468   -2.51452   0.32279 
 H                     5.05046   1.5418   -1.88289 
 H                     5.08944  -0.68783  -0.79478 
 C                     3.03236  -1.92841   0.3691 
 C                     0.6542   -0.36291   0.57386 
 H                     0.91209   1.98802  -0.8421 
 H                     2.9179    2.84101  -1.93228 
 C                     0.70705  -1.69324   0.98794 
 C                     1.89289  -2.46383   0.90911 
 H                     1.88842  -3.48168   1.29638 
 O                     0.3964    2.22472   1.60325 
 H                     0.19918   3.13652   1.8665 
 O                    -0.39638  -2.22474   1.60325 
 H                    -0.19915  -3.13654   1.8665 
 
                          Input orientation:                          
 ---------------------------------------------------------------------
 Center     Atomic      Atomic             Coordinates (Angstroms)
 Number     Number       Type             X           Y           Z
 ---------------------------------------------------------------------
      1          6           0       -2.956360   -1.886832   -1.412763
      2          6           0       -1.825175   -1.410242   -0.788530
      3          6           0       -1.817391   -0.161416   -0.104298
      4          6           0       -3.026505    0.612977   -0.158452
      5          6           0       -4.184773    0.083765   -0.788469
      6          6           0       -4.161721   -1.148063   -1.397448
      7          1           0       -2.917920   -2.841000   -1.932295
      8          1           0       -0.912111   -1.988027   -0.842107
      9          6           0       -0.654208    0.362904    0.573867
     10          6           0       -3.032345    1.928414    0.369113
     11          1           0       -5.089439    0.687849   -0.794770
     12          1           0       -5.050470   -1.541769   -1.882888
     13          6           0       -1.892870    2.463831    0.909124
     14          6           0       -0.707043    1.693229    0.987953
     15          1           0       -3.946780    2.514528    0.322806
     16          1           0       -1.888395    3.481673    1.296393
     17          6           0        4.161708    1.148082   -1.397448
     18          6           0        4.184769   -0.083750   -0.788476
     19          6           0        3.026504   -0.612972   -0.158461
     20          6           0        1.817384    0.161410   -0.104304
     21          6           0        1.825161    1.410241   -0.788528
     22          6           0        2.956342    1.886842   -1.412758
     23          1           0        3.946796   -2.514518    0.322789
     24          1           0        5.050455    1.541797   -1.882887
     25          1           0        5.089439   -0.687827   -0.794779
     26          6           0        3.032357   -1.928410    0.369098
     27          6           0        0.654199   -0.362914    0.573857
     28          1           0        0.912093    1.988021   -0.842100
     29          1           0        2.917896    2.841013   -1.932284
     30          6           0        0.707053   -1.693240    0.987941
     31          6           0        1.892885   -2.463834    0.909109
     32          1           0        1.888418   -3.481676    1.296379
     33          8           0        0.396403    2.224720    1.603249
     34          1           0        0.199179    3.136522    1.866503
     35          8           0       -0.396382   -2.224742    1.603247
     36          1           0       -0.199146   -3.136541    1.866501
 ---------------------------------------------------------------------
                    Distance matrix (angstroms):
                    1          2          3          4          5
     1  C    0.000000
     2  C    1.377093   0.000000
     3  C    2.446710   1.424009   0.000000
     4  C    2.797724   2.435900   1.436862   0.000000
     5  C    2.404578   2.792805   2.476429   1.420764   0.000000
     6  C    1.413828   2.428779   2.853348   2.434150   1.374331
     7  H    1.087119   2.132923   3.425333   3.884362   3.386370
     8  H    2.124816   1.081847   2.168041   3.421004   3.873695
     9  C    3.782580   2.524151   1.444927   2.495320   3.794571
    10  C    4.211527   3.734169   2.463254   1.417298   2.463903
    11  H    3.400136   3.880392   3.450261   2.160140   1.087832
    12  H    2.173795   3.408438   3.939741   3.422432   2.142322
    13  C    5.044843   4.230255   2.815074   2.418782   3.714748
    14  C    4.862068   3.746684   2.421899   2.803764   4.223820
    15  H    4.833746   4.597836   3.446359   2.166659   2.683315
    16  H    6.107448   5.318057   3.903726   3.411933   4.600628
    17  C    7.738077   6.539004   6.255929   7.313813   8.436076
    18  C    7.391655   6.154592   6.041528   7.272196   8.371218
    19  C    6.244250   4.956956   4.865198   6.175910   7.272198
    20  C    5.356864   4.025729   3.649083   4.865193   6.041523
    21  C    5.841515   4.613033   4.025725   4.956943   6.154579
    22  C    7.014318   5.841518   5.356861   6.244235   7.391640
    23  H    7.145607   5.980811   6.240620   7.657659   8.608623
    24  H    8.722706   7.562172   7.296000   8.311057   9.413450
    25  H    8.158088   6.952252   6.961191   8.244122   9.306256
    26  C    6.248319   5.020380   5.183283   6.591416   7.581278
    27  C    4.393759   3.016669   2.570847   3.877657   5.046891
    28  H    5.505004   4.363908   3.551692   4.227372   5.441242
    29  H    7.558393   6.471326   5.897377   6.591398   7.704456
    30  C    4.384228   3.106142   3.148379   4.535671   5.499395
    31  C    5.407328   4.220901   4.482663   5.899733   6.805142
    32  H    5.775366   4.735869   5.169047   6.560426   7.344563
    33  O    6.102639   4.885587   3.675629   4.173440   5.593852
    34  H    6.778281   5.640946   4.339010   4.568781   5.965504
    35  O    3.970389   2.902664   3.031879   4.251327   5.039982
    36  H    4.462911   3.559953   3.918435   5.114028   5.771002
                    6          7          8          9         10
     6  C    0.000000
     7  H    2.167750   0.000000
     8  H    3.402045   2.437077   0.000000
     9  C    4.297878   4.655131   2.756515   0.000000
    10  C    3.723028   5.296875   4.615296   2.854519   0.000000
    11  H    2.143468   4.296770   4.961111   4.652959   2.669318
    12  H    1.086523   2.497641   4.290500   5.384287   4.602880
    13  C    4.849097   6.104557   4.883415   2.461824   1.369922
    14  C    5.069307   5.828813   4.116165   1.394282   2.417706
    15  H    4.052166   5.901332   5.553309   3.941262   1.087136
    16  H    5.818870   7.173600   5.953481   3.431032   2.140347
    17  C    8.634336   8.143707   5.990595   5.262664   7.448762
    18  C    8.436083   7.704475   5.441262   5.046898   7.581263
    19  C    7.313822   6.591417   4.227391   3.877664   6.591406
    20  C    6.255928   5.897383   3.551700   2.570853   5.183271
    21  C    6.538995   6.471327   4.363915   3.016671   5.020359
    22  C    7.738068   7.558397   5.505014   4.393761   6.248293
    23  H    8.400861   7.233002   5.024256   5.432480   8.273464
    24  H    9.609120   9.094303   7.006788   6.322073   8.399561
    25  H    9.282187   8.369462   6.140958   5.997225   8.611779
    26  C    7.448784   6.444767   4.126669   4.345436   7.187190
    27  C    5.262660   5.018141   2.664446   1.496242   4.345424
    28  H    5.990578   6.259151   4.374549   2.664445   4.126643
    29  H    8.143694   8.145061   6.259159   5.018141   6.444737
    30  C    5.449060   4.794326   2.461233   2.500443   5.242368
    31  C    6.611332   5.599971   3.340831   3.819754   6.621278
    32  H    7.021868   5.825434   3.827149   4.665594   7.371757
    33  O    6.415321   7.010444   5.043730   2.372714   3.656118
    34  H    6.930259   7.738084   5.901910   3.176812   3.760911
    35  O    4.933679   4.386113   2.510332   2.796786   5.071498
    36  H    5.505398   4.680804   3.027203   3.758204   5.993576
                   11         12         13         14         15
    11  H    0.000000
    12  H    2.481273   0.000000
    13  C    4.034281   5.814688   0.000000
    14  C    4.836764   6.129625   1.416413   0.000000
    15  H    2.427221   4.747290   2.136559   3.407763   0.000000
    16  H    4.735515   6.733611   1.089036   2.165470   2.473902
    17  C    9.282174   9.609119   6.611307   5.449042   8.400835
    18  C    9.306253   9.413458   6.805124   5.499380   8.608605
    19  C    8.244122   8.311066   5.899720   4.535659   7.657647
    20  C    6.961184   7.295999   4.482651   3.148369   6.240607
    21  C    6.952236   7.562162   4.220880   3.106127   5.980787
    22  C    8.158069   8.722696   5.407301   4.384209   7.145577
    23  H    9.651820   9.314615   7.696067   6.309183   9.359479
    24  H   10.233801  10.561111   7.540241   6.435327   9.314587
    25  H   10.271419  10.233814   7.847858   6.515118   9.651804
    26  C    8.611793   8.399585   6.621274   5.242362   8.273463
    27  C    5.997218   6.322068   3.819745   2.500436   5.432468
    28  H    6.140934   7.006769   3.340808   2.461219   5.024228
    29  H    8.369436   9.094288   5.599941   4.794307   7.232966
    30  C    6.515133   6.435346   4.903779   3.669856   6.309190
    31  C    7.847876   7.540267   6.214002   4.903776   7.696072
    32  H    8.393350   7.875223   7.056710   5.797516   8.423292
    33  O    6.181175   7.483850   2.404112   1.370644   4.537264
    34  H    6.406860   7.968887   2.397031   1.917338   4.467533
    35  O    6.021499   5.854923   4.970312   3.978139   6.058509
    36  H    6.754501   6.335342   5.928696   4.935229   6.954303
                   16         17         18         19         20
    16  H    0.000000
    17  C    7.021835   0.000000
    18  C    7.344538   1.374332   0.000000
    19  C    6.560408   2.434150   1.420765   0.000000
    20  C    5.169032   2.853349   2.476430   1.436862   0.000000
    21  C    4.735845   2.428778   2.792805   2.435898   1.424009
    22  C    5.775332   1.413827   2.404578   2.797723   2.446711
    23  H    8.423281   4.052165   2.683314   2.166660   3.446360
    24  H    7.875188   1.086524   2.142324   3.422434   3.939743
    25  H    8.393325   2.143468   1.087831   2.160140   3.450261
    26  C    7.371748   3.723026   2.463900   1.417297   2.463253
    27  C    4.665586   4.297880   3.794576   2.495326   1.444928
    28  H    3.827124   3.402044   3.873696   3.421003   2.168041
    29  H    5.825396   2.167748   3.386370   3.884360   3.425334
    30  C    5.797518   5.069303   4.223816   2.803760   2.421892
    31  C    7.056708   4.849093   3.714745   2.418778   2.815069
    32  H    7.921650   5.818867   4.600625   3.411929   3.903721
    33  O    2.625718   4.933645   5.039950   4.251300   3.031860
    34  H    2.191374   5.505352   5.770961   5.113996   3.918413
    35  O    5.906220   6.415317   5.593848   4.173436   3.675624
    36  H    6.854148   6.930253   5.965496   4.568773   4.339003
                   21         22         23         24         25
    21  C    0.000000
    22  C    1.377092   0.000000
    23  H    4.597836   4.833745   0.000000
    24  H    3.408438   2.173795   4.747290   0.000000
    25  H    3.880392   3.400135   2.427219   2.481274   0.000000
    26  C    3.734168   4.211524   1.087137   4.602879   2.669315
    27  C    2.524148   3.782579   3.941273   5.384290   4.652965
    28  H    1.081847   2.124816   5.553309   4.290500   4.961111
    29  H    2.132922   1.087119   5.901331   2.497641   4.296770
    30  C    3.746679   4.862062   3.407765   6.129621   4.836761
    31  C    4.230250   5.044838   2.136560   5.814686   4.034277
    32  H    5.318053   6.107444   2.473902   6.733609   4.735512
    33  O    2.902641   3.970359   6.058485   5.854889   6.021466
    34  H    3.559923   4.462869   6.954275   6.335294   6.754459
    35  O    4.885585   6.102636   4.537261   7.483848   6.181170
    36  H    5.640942   6.778276   4.467527   7.968881   6.406851
                   26         27         28         29         30
    26  C    0.000000
    27  C    2.854530   0.000000
    28  H    4.615295   2.756508   0.000000
    29  H    5.296872   4.655128   2.437077   0.000000
    30  C    2.417708   1.394283   4.116160   5.828807   0.000000
    31  C    1.369922   2.461829   4.883411   6.104553   1.416413
    32  H    2.140346   3.431036   5.953477   7.173596   2.165470
    33  O    5.071476   2.796776   2.510318   4.386085   3.978130
    34  H    5.993551   3.758195   3.027182   4.680762   4.935221
    35  O    3.656116   2.372713   5.043729   7.010442   1.370644
    36  H    3.760905   3.176812   5.901907   7.738079   1.917337
                   31         32         33         34         35
    31  C    0.000000
    32  H    1.089036   0.000000
    33  O    4.970294   5.906203   0.000000
    34  H    5.928679   6.854131   0.969321   0.000000
    35  O    2.404108   2.625712   4.519538   5.400662   0.000000
    36  H    2.397025   2.191365   5.400657   6.285697   0.969320
                   36
    36  H    0.000000
 Stoichiometry    C20H14O2
 Framework group  C1[X(C20H14O2)]
 Deg. of freedom   102
 Full point group                 C1      NOp   1
 Largest Abelian subgroup         C1      NOp   1
 Largest concise Abelian subgroup C1      NOp   1
                         Standard orientation:                         
 ---------------------------------------------------------------------
 Center     Atomic      Atomic             Coordinates (Angstroms)
 Number     Number       Type             X           Y           Z
 ---------------------------------------------------------------------
      1          6           0       -2.956360    1.886832    1.412763
      2          6           0       -1.825175    1.410242    0.788530
      3          6           0       -1.817391    0.161416    0.104298
      4          6           0       -3.026505   -0.612977    0.158452
      5          6           0       -4.184773   -0.083765    0.788469
      6          6           0       -4.161721    1.148063    1.397448
      7          1           0       -2.917920    2.841000    1.932295
      8          1           0       -0.912111    1.988027    0.842107
      9          6           0       -0.654208   -0.362904   -0.573867
     10          6           0       -3.032345   -1.928414   -0.369113
     11          1           0       -5.089439   -0.687849    0.794770
     12          1           0       -5.050470    1.541769    1.882888
     13          6           0       -1.892870   -2.463831   -0.909124
     14          6           0       -0.707043   -1.693229   -0.987953
     15          1           0       -3.946780   -2.514528   -0.322806
     16          1           0       -1.888395   -3.481673   -1.296393
     17          6           0        4.161708   -1.148082    1.397448
     18          6           0        4.184769    0.083750    0.788476
     19          6           0        3.026504    0.612972    0.158461
     20          6           0        1.817384   -0.161410    0.104304
     21          6           0        1.825161   -1.410241    0.788528
     22          6           0        2.956342   -1.886842    1.412758
     23          1           0        3.946796    2.514518   -0.322789
     24          1           0        5.050455   -1.541797    1.882887
     25          1           0        5.089439    0.687827    0.794779
     26          6           0        3.032357    1.928410   -0.369098
     27          6           0        0.654199    0.362914   -0.573857
     28          1           0        0.912093   -1.988021    0.842100
     29          1           0        2.917896   -2.841013    1.932284
     30          6           0        0.707053    1.693240   -0.987941
     31          6           0        1.892885    2.463834   -0.909109
     32          1           0        1.888418    3.481676   -1.296379
     33          8           0        0.396403   -2.224720   -1.603249
     34          1           0        0.199179   -3.136522   -1.866503
     35          8           0       -0.396382    2.224742   -1.603247
     36          1           0       -0.199146    3.136541   -1.866501
 ---------------------------------------------------------------------
 Rotational constants (GHZ):           0.4969687           0.2286812           0.1909443
 Standard basis: 6-31G(d) (6D, 7F)
 There are   358 symmetry adapted cartesian basis functions of A   symmetry.
 There are   358 symmetry adapted basis functions of A   symmetry.
   358 basis functions,   672 primitive gaussians,   358 cartesian basis functions
    75 alpha electrons       75 beta electrons
       nuclear repulsion energy      1675.6565915326 Hartrees.
 NAtoms=   36 NActive=   36 NUniq=   36 SFac= 1.00D+00 NAtFMM=   60 NAOKFM=F Big=F
 Integral buffers will be    131072 words long.
 Regular integral format.
 Two-electron integral symmetry is turned on.
 One-electron integrals computed using PRISM.
 NBasis=   358 RedAO= T EigKep=  2.52D-04  NBF=   358
 NBsUse=   358 1.00D-06 EigRej= -1.00D+00 NBFU=   358
 ExpMin= 1.61D-01 ExpMax= 5.48D+03 ExpMxC= 8.25D+02 IAcc=3 IRadAn=         5 AccDes= 0.00D+00
 Harris functional with IExCor=  402 and IRadAn=       5 diagonalized for initial guess.
 HarFok:  IExCor=  402 AccDes= 0.00D+00 IRadAn=         5 IDoV= 1 UseB2=F ITyADJ=14
 ICtDFT=  3500011 ScaDFX=  1.000000  1.000000  1.000000  1.000000
 FoFCou: FMM=F IPFlag=           0 FMFlag=      100000 FMFlg1=           0
         NFxFlg=           0 DoJE=T BraDBF=F KetDBF=T FulRan=T
         wScrn=  0.000000 ICntrl=       500 IOpCl=  0 I1Cent=   200000004 NGrid=           0
         NMat0=    1 NMatS0=      1 NMatT0=    0 NMatD0=    1 NMtDS0=    0 NMtDT0=    0
 Petite list used in FoFCou.
 Requested convergence on RMS density matrix=1.00D-08 within 128 cycles.
 Requested convergence on MAX density matrix=1.00D-06.
 Requested convergence on             energy=1.00D-06.
 No special actions if energy rises.
 Integral accuracy reduced to 1.0D-05 until final iterations.
 Initial convergence to 1.0D-05 achieved.  Increase integral accuracy.
 SCF Done:  E(RB3LYP) =  -921.005315210     A.U. after   14 cycles
            NFock= 14  Conv=0.69D-08     -V/T= 2.0095
 DoSCS=F DFT=T ScalE2(SS,OS)=  1.000000  1.000000
 ExpMin= 1.61D-01 ExpMax= 5.48D+03 ExpMxC= 8.25D+02 IAcc=3 IRadAn=         5 AccDes= 0.00D+00
 HarFok:  IExCor=  205 AccDes= 0.00D+00 IRadAn=         5 IDoV=-2 UseB2=F ITyADJ=14
 ICtDFT= 12500011 ScaDFX=  1.000000  1.000000  1.000000  1.000000
 GSVD:  LWork=        -660 too small for GESVD, short by        2750 words or        2750 for optimal perf.
 Range of M.O.s used for correlation:    23   358
 NBasis=   358 NAE=    75 NBE=    75 NFC=    22 NFV=     0
 NROrb=    336 NOA=    53 NOB=    53 NVA=   283 NVB=   283
 Orbital symmetries:
       Occupied  (A) (A) (A) (A) (A) (A) (A) (A) (A) (A) (A) (A)
                 (A) (A) (A) (A) (A) (A) (A) (A) (A) (A) (A) (A)
                 (A) (A) (A) (A) (A) (A) (A) (A) (A) (A) (A) (A)
                 (A) (A) (A) (A) (A) (A) (A) (A) (A) (A) (A) (A)
                 (A) (A) (A) (A) (A) (A) (A) (A) (A) (A) (A) (A)
                 (A) (A) (A) (A) (A) (A) (A) (A) (A) (A) (A) (A)
                 (A) (A) (A)
       Virtual   (A) (A) (A) (A) (A) (A) (A) (A) (A) (A) (A) (A)
                 (A) (A) (A) (A) (A) (A) (A) (A) (A) (A) (A) (A)
                 (A) (A) (A) (A) (A) (A) (A) (A) (A) (A) (A) (A)
                 (A) (A) (A) (A) (A) (A) (A) (A) (A) (A) (A) (A)
                 (A) (A) (A) (A) (A) (A) (A) (A) (A) (A) (A) (A)
                 (A) (A) (A) (A) (A) (A) (A) (A) (A) (A) (A) (A)
                 (A) (A) (A) (A) (A) (A) (A) (A) (A) (A) (A) (A)
                 (A) (A) (A) (A) (A) (A) (A) (A) (A) (A) (A) (A)
                 (A) (A) (A) (A) (A) (A) (A) (A) (A) (A) (A) (A)
                 (A) (A) (A) (A) (A) (A) (A) (A) (A) (A) (A) (A)
                 (A) (A) (A) (A) (A) (A) (A) (A) (A) (A) (A) (A)
                 (A) (A) (A) (A) (A) (A) (A) (A) (A) (A) (A) (A)
                 (A) (A) (A) (A) (A) (A) (A) (A) (A) (A) (A) (A)
                 (A) (A) (A) (A) (A) (A) (A) (A) (A) (A) (A) (A)
                 (A) (A) (A) (A) (A) (A) (A) (A) (A) (A) (A) (A)
                 (A) (A) (A) (A) (A) (A) (A) (A) (A) (A) (A) (A)
                 (A) (A) (A) (A) (A) (A) (A) (A) (A) (A) (A) (A)
                 (A) (A) (A) (A) (A) (A) (A) (A) (A) (A) (A) (A)
                 (A) (A) (A) (A) (A) (A) (A) (A) (A) (A) (A) (A)
                 (A) (A) (A) (A) (A) (A) (A) (A) (A) (A) (A) (A)
                 (A) (A) (A) (A) (A) (A) (A) (A) (A) (A) (A) (A)
                 (A) (A) (A) (A) (A) (A) (A) (A) (A) (A) (A) (A)
                 (A) (A) (A) (A) (A) (A) (A) (A) (A) (A) (A) (A)
                 (A) (A) (A) (A) (A) (A) (A)
    64 initial guesses have been made.
 Convergence on wavefunction:    0.001000000000000
 Iteration     1 Dimension    64 NMult     0 NNew     64
 CISAX will form    64 AO SS matrices at one time.
 New state      3 was old state      6
 New state      6 was old state      3
 New state      7 was old state      8
 New state      8 was old state      7
 New state      9 was old state     11
 New state     10 was old state     13
 New state     11 was old state     10
 New state     12 was old state     14
 New state     13 was old state     19
 New state     14 was old state     16
 New state     16 was old state     20
 Iteration     2 Dimension    96 NMult    64 NNew     32
 New state      5 was old state      6
 New state      6 was old state      5
 New state     16 was old state     17
 Iteration     3 Dimension   128 NMult    96 NNew     32
 Iteration     4 Dimension   160 NMult   128 NNew     32
 Iteration     5 Dimension   178 NMult   160 NNew     18
 Iteration     6 Dimension   180 NMult   178 NNew      2
 ***********************************************************************
 Excited states from <AA,BB:AA,BB> singles matrix:
 ***********************************************************************
 
 Ground to excited state transition densities written to RWF  633
 Ground to excited state transition electric dipole moments (Au):
       state          X           Y           Z        Dip. S.      Osc.
         1         1.3367      0.6199     -0.0000      2.1711      0.1890
         2        -0.0000     -0.0000     -0.1311      0.0172      0.0016
         3        -0.0000     -0.0000      0.1790      0.0320      0.0032
         4        -0.1600      0.2890     -0.0000      0.1091      0.0113
         5        -0.0000     -0.0000     -0.0637      0.0041      0.0004
         6        -0.6732     -0.2088      0.0000      0.4968      0.0542
         7         0.0000      0.0000     -0.3829      0.1466      0.0171
         8        -0.3877      0.7061      0.0000      0.6489      0.0766
         9         0.0000     -0.0001      0.1187      0.0141      0.0017
        10         0.1556     -0.0343      0.0000      0.0254      0.0031
        11        -0.0724     -0.0837      0.0000      0.0122      0.0015
        12         1.0769     -0.0372      0.0000      1.1612      0.1533
        13         0.0000     -0.0000     -0.8484      0.7198      0.0982
        14         0.0001     -0.0003     -0.5800      0.3363      0.0469
        15         0.3094     -0.7389      0.0003      0.6417      0.0898
        16         0.0001     -0.0002      0.2594      0.0673      0.0095
 Ground to excited state transition velocity dipole moments (Au):
       state          X           Y           Z        Dip. S.      Osc.
         1        -0.1867     -0.0822      0.0000      0.0416      0.2124
         2         0.0000      0.0000      0.0215      0.0005      0.0022
         3         0.0000      0.0000     -0.0203      0.0004      0.0018
         4         0.0181     -0.0429      0.0000      0.0022      0.0093
         5         0.0000      0.0000      0.0082      0.0001      0.0003
         6         0.1208      0.0372     -0.0000      0.0160      0.0650
         7        -0.0000     -0.0000      0.0701      0.0049      0.0187
         8         0.0597     -0.1243     -0.0000      0.0190      0.0716
         9        -0.0000      0.0000     -0.0220      0.0005      0.0018
        10        -0.0296     -0.0012     -0.0000      0.0009      0.0032
        11         0.0199      0.0056     -0.0000      0.0004      0.0015
        12        -0.2089      0.0087     -0.0000      0.0437      0.1472
        13        -0.0000     -0.0000      0.1706      0.0291      0.0949
        14        -0.0000      0.0001      0.1224      0.0150      0.0477
        15        -0.0613      0.1508     -0.0001      0.0265      0.0841
        16        -0.0000      0.0000     -0.0565      0.0032      0.0101
 Ground to excited state transition magnetic dipole moments (Au):
       state          X           Y           Z
         1        -0.1698      0.1147     -0.0000
         2         0.0000      0.0000     -0.6455
         3        -0.0000      0.0000      0.7243
         4         0.1933     -0.3178     -0.0000
         5        -0.0000     -0.0000     -0.0732
         6        -0.1167     -0.0208      0.0000
         7        -0.0000     -0.0000     -0.9566
         8         0.1784     -0.4681      0.0001
         9        -0.0000      0.0001      0.3229
        10        -0.0748     -0.0423      0.0001
        11         0.0660      0.0235      0.0000
        12        -0.3993      0.8436      0.0000
        13        -0.0000      0.0000     -1.6656
        14        -0.0000      0.0002     -1.0657
        15        -0.1256      0.4485      0.0006
        16        -0.0000      0.0001      0.2669
 Ground to excited state transition velocity quadrupole moments (Au):
       state          XX          YY          ZZ          XY          XZ          YZ
         1         0.0000     -0.0000     -0.0000      0.0000     -0.1500      0.2209
         2        -0.1032     -0.1110      0.0078     -0.1724      0.0000     -0.0000
         3         0.6435      0.1519     -0.0103      0.4925     -0.0000     -0.0000
         4         0.0000     -0.0000      0.0000      0.0000      0.1183     -0.0074
         5         0.6968     -0.0639     -0.0073      0.1536      0.0000     -0.0000
         6        -0.0000      0.0000      0.0000     -0.0000      0.1332      0.0026
         7         0.3650     -0.1613     -0.0058     -0.3151     -0.0000     -0.0000
         8        -0.0000      0.0000     -0.0000      0.0000      0.2779      0.0378
         9        -0.1323      0.0944      0.0006      0.1278     -0.0000      0.0000
        10        -0.0000      0.0000      0.0000      0.0000     -0.1155     -0.0379
        11        -0.0000     -0.0000     -0.0000      0.0000     -0.0069     -0.0844
        12        -0.0000      0.0000      0.0000      0.0000     -0.2964      0.4400
        13         1.5653     -0.3852      0.0406     -0.8555     -0.0000      0.0000
        14         1.3337     -0.2079      0.0556     -0.4678     -0.0002     -0.0000
        15        -0.0007      0.0001     -0.0000      0.0003     -0.4438     -0.0130
        16        -0.2630      0.3005      0.0505      0.4536     -0.0001     -0.0000
 <0|del|b> * <b|rxdel|0> + <0|del|b> * <b|delr+rdel|0>
 Rotatory Strengths (R) in cgs (10**-40 erg-esu-cm/Gauss)
       state          XX          YY          ZZ    R(velocity)    E-M Angle
         1       -58.9380    -25.8451    205.3330     40.1833       57.81
         2       -44.2329    -25.5856      0.0000    -23.2729       90.00
         3       -58.2468    -11.0940     -0.0000    -23.1136       90.00
         4        42.5326      7.6245     27.6869     25.9480        8.50
         5         1.4422     -4.0696     -0.0000     -0.8758       90.00
         6       -12.3535    -29.7693    -22.0948    -21.4059      173.00
         7      -179.9473    -90.7793      0.0000    -90.2422       90.00
         8       185.1793     25.7950     63.9954     91.6566        4.80
         9       -19.3605     -8.3815      0.0000     -9.2474       90.00
        10        -0.1665      6.4458      2.4687      2.9160       27.19
        11         0.3179     -0.6870      5.8043      1.8117        3.98
        12        17.6833    -15.2077    321.5723    108.0160       62.29
        13      -743.4131   -238.8745      0.0000   -327.4292       90.00
        14      -317.1594   -123.6514      0.0000   -146.9369       90.00
        15       226.5663     14.3093     12.8221     84.5659        6.49
        16       -68.1088     17.6488      0.0000    -16.8200       90.00
 1/2[<0|r|b>*<b|rxdel|0> + (<0|rxdel|b>*<b|r|0>)*]
 Rotatory Strengths (R) in cgs (10**-40 erg-esu-cm/Gauss)
       state          XX          YY          ZZ     R(length)
         1       160.5032    -50.2716     -0.0000     36.7439
         2         0.0000      0.0000    -59.8541    -19.9514
         3        -0.0000      0.0000    -91.6719    -30.5573
         4        21.8630     64.9552     -0.0000     28.9394
         5        -0.0000     -0.0000     -3.2978     -1.0993
         6       -55.5776     -3.0692     -0.0000    -19.5489
         7         0.0000      0.0000   -259.0224    -86.3408
         8        48.9163    233.7596     -0.0000     94.2253
         9         0.0000      0.0000    -27.0978     -9.0326
        10         8.2373     -1.0263     -0.0000      2.4037
        11         3.3817      1.3919     -0.0000      1.5912
        12       304.0738     22.2196     -0.0000    108.7645
        13         0.0000      0.0000   -999.3010   -333.1003
        14         0.0000      0.0000   -437.0618   -145.6872
        15        27.4806    234.3436     -0.0001     87.2747
        16         0.0000      0.0000    -48.9572    -16.3190
  1/2[<0|del|b>*<b|r|0> + (<0|r|b>*<b|del|0>)*] (Au)
       state          X           Y           Z        Dip. S.   Osc.(frdel)
         1        -0.2495     -0.0510     -0.0000      0.3005      0.2003
         2        -0.0000     -0.0000     -0.0028      0.0028      0.0019
         3        -0.0000     -0.0000     -0.0036      0.0036      0.0024
         4        -0.0029     -0.0124     -0.0000      0.0153      0.0102
         5        -0.0000     -0.0000     -0.0005      0.0005      0.0003
         6        -0.0813     -0.0078     -0.0000      0.0891      0.0594
         7        -0.0000     -0.0000     -0.0268      0.0268      0.0179
         8        -0.0232     -0.0878     -0.0000      0.1110      0.0740
         9        -0.0000     -0.0000     -0.0026      0.0026      0.0017
        10        -0.0046      0.0000     -0.0000      0.0046      0.0030
        11        -0.0014     -0.0005     -0.0000      0.0019      0.0013
        12        -0.2250     -0.0003     -0.0000      0.2253      0.1502
        13        -0.0000      0.0000     -0.1448      0.1448      0.0965
        14        -0.0000     -0.0000     -0.0710      0.0710      0.0473
        15        -0.0190     -0.1114     -0.0000      0.1304      0.0869
        16        -0.0000     -0.0000     -0.0147      0.0147      0.0098

 Excitation energies and oscillator strengths:
 
 Excited State   1:      Singlet-A      3.5539 eV  348.87 nm  f=0.1890  <S**2>=0.000
      75 -> 76         0.69608
 This state for optimization and/or second-order correction.
 Total Energy, E(TD-HF/TD-DFT) =  -920.874710983    
 Copying the excited state density for this state as the 1-particle RhoCI density.
 
 Excited State   2:      Singlet-A      3.8210 eV  324.48 nm  f=0.0016  <S**2>=0.000
      74 -> 76         0.62581
      75 -> 77         0.31059
 
 Excited State   3:      Singlet-A      4.0830 eV  303.66 nm  f=0.0032  <S**2>=0.000
      72 -> 76        -0.17043
      72 -> 78        -0.10201
      74 -> 76        -0.25600
      75 -> 77         0.59407
      75 -> 79         0.14575
 
 Excited State   4:      Singlet-A      4.2343 eV  292.81 nm  f=0.0113  <S**2>=0.000
      72 -> 77        -0.10438
      73 -> 76         0.47456
      74 -> 77        -0.28340
      74 -> 79        -0.12918
      75 -> 78        -0.39168
 
 Excited State   5:      Singlet-A      4.3923 eV  282.28 nm  f=0.0004  <S**2>=0.000
      72 -> 76         0.53428
      74 -> 76        -0.16288
      74 -> 78        -0.17089
      75 -> 77         0.18048
      75 -> 79        -0.33544
 
 Excited State   6:      Singlet-A      4.4561 eV  278.24 nm  f=0.0542  <S**2>=0.000
      73 -> 76         0.35087
      74 -> 77         0.59543
 
 Excited State   7:      Singlet-A      4.7671 eV  260.09 nm  f=0.0171  <S**2>=0.000
      72 -> 76         0.35123
      73 -> 77         0.42675
      75 -> 79         0.42611
 
 Excited State   8:      Singlet-A      4.8195 eV  257.25 nm  f=0.0766  <S**2>=0.000
      72 -> 77         0.31608
      73 -> 76         0.29513
      74 -> 77        -0.17354
      74 -> 79        -0.21138
      75 -> 78         0.47333
 
 Excited State   9:      Singlet-A      4.9211 eV  251.95 nm  f=0.0017  <S**2>=0.000
      73 -> 77         0.33683
      74 -> 78         0.52786
      75 -> 79        -0.30418
 
 Excited State  10:      Singlet-A      4.9908 eV  248.43 nm  f=0.0031  <S**2>=0.000
      71 -> 76        -0.15182
      72 -> 77         0.44755
      74 -> 79         0.47451
      75 -> 78        -0.17289
 
 Excited State  11:      Singlet-A      5.1125 eV  242.51 nm  f=0.0015  <S**2>=0.000
      71 -> 76         0.61669
      72 -> 77         0.17339
      75 -> 80         0.28016
 
 Excited State  12:      Singlet-A      5.3880 eV  230.11 nm  f=0.1533  <S**2>=0.000
      71 -> 76        -0.26983
      74 -> 79        -0.14982
      75 -> 80         0.61461
 
 Excited State  13:      Singlet-A      5.5681 eV  222.67 nm  f=0.0982  <S**2>=0.000
      70 -> 76         0.24381
      71 -> 77         0.35024
      72 -> 76         0.11937
      73 -> 77        -0.27039
      73 -> 79        -0.10454
      74 -> 78         0.24361
      74 -> 80        -0.23067
      75 -> 79         0.14654
      75 -> 81        -0.26409
 
 Excited State  14:      Singlet-A      5.6958 eV  217.68 nm  f=0.0469  <S**2>=0.000
      71 -> 77        -0.31933
      72 -> 78         0.47371
      73 -> 77        -0.10340
      73 -> 79        -0.13236
      74 -> 78         0.20151
      74 -> 80        -0.13970
      75 -> 79         0.12639
      75 -> 81         0.21356
 
 Excited State  15:      Singlet-A      5.7140 eV  216.98 nm  f=0.0898  <S**2>=0.000
      72 -> 77         0.12369
      72 -> 79        -0.38457
      73 -> 78         0.54748
      74 -> 79        -0.12188
 
 Excited State  16:      Singlet-A      5.7516 eV  215.57 nm  f=0.0095  <S**2>=0.000
      70 -> 76         0.16579
      73 -> 77         0.10010
      73 -> 79         0.47041
      74 -> 80        -0.44039
 SavETr:  write IOETrn=   770 NScale= 10 NData=  16 NLR=1 NState=   16 LETran=     298.

 **********************************************************************

            Population analysis using the SCF Density.

 **********************************************************************

 Orbital symmetries:
       Occupied  (A) (A) (A) (A) (A) (A) (A) (A) (A) (A) (A) (A)
                 (A) (A) (A) (A) (A) (A) (A) (A) (A) (A) (A) (A)
                 (A) (A) (A) (A) (A) (A) (A) (A) (A) (A) (A) (A)
                 (A) (A) (A) (A) (A) (A) (A) (A) (A) (A) (A) (A)
                 (A) (A) (A) (A) (A) (A) (A) (A) (A) (A) (A) (A)
                 (A) (A) (A) (A) (A) (A) (A) (A) (A) (A) (A) (A)
                 (A) (A) (A)
       Virtual   (A) (A) (A) (A) (A) (A) (A) (A) (A) (A) (A) (A)
                 (A) (A) (A) (A) (A) (A) (A) (A) (A) (A) (A) (A)
                 (A) (A) (A) (A) (A) (A) (A) (A) (A) (A) (A) (A)
                 (A) (A) (A) (A) (A) (A) (A) (A) (A) (A) (A) (A)
                 (A) (A) (A) (A) (A) (A) (A) (A) (A) (A) (A) (A)
                 (A) (A) (A) (A) (A) (A) (A) (A) (A) (A) (A) (A)
                 (A) (A) (A) (A) (A) (A) (A) (A) (A) (A) (A) (A)
                 (A) (A) (A) (A) (A) (A) (A) (A) (A) (A) (A) (A)
                 (A) (A) (A) (A) (A) (A) (A) (A) (A) (A) (A) (A)
                 (A) (A) (A) (A) (A) (A) (A) (A) (A) (A) (A) (A)
                 (A) (A) (A) (A) (A) (A) (A) (A) (A) (A) (A) (A)
                 (A) (A) (A) (A) (A) (A) (A) (A) (A) (A) (A) (A)
                 (A) (A) (A) (A) (A) (A) (A) (A) (A) (A) (A) (A)
                 (A) (A) (A) (A) (A) (A) (A) (A) (A) (A) (A) (A)
                 (A) (A) (A) (A) (A) (A) (A) (A) (A) (A) (A) (A)
                 (A) (A) (A) (A) (A) (A) (A) (A) (A) (A) (A) (A)
                 (A) (A) (A) (A) (A) (A) (A) (A) (A) (A) (A) (A)
                 (A) (A) (A) (A) (A) (A) (A) (A) (A) (A) (A) (A)
                 (A) (A) (A) (A) (A) (A) (A) (A) (A) (A) (A) (A)
                 (A) (A) (A) (A) (A) (A) (A) (A) (A) (A) (A) (A)
                 (A) (A) (A) (A) (A) (A) (A) (A) (A) (A) (A) (A)
                 (A) (A) (A) (A) (A) (A) (A) (A) (A) (A) (A) (A)
                 (A) (A) (A) (A) (A) (A) (A) (A) (A) (A) (A) (A)
                 (A) (A) (A) (A) (A) (A) (A)
 The electronic state is 1-A.
 Alpha  occ. eigenvalues --  -19.17483 -19.17482 -10.24690 -10.24690 -10.19419
 Alpha  occ. eigenvalues --  -10.19419 -10.19190 -10.19185 -10.19185 -10.19163
 Alpha  occ. eigenvalues --  -10.19118 -10.19118 -10.18838 -10.18838 -10.18218
 Alpha  occ. eigenvalues --  -10.18218 -10.18063 -10.18063 -10.17965 -10.17965
 Alpha  occ. eigenvalues --  -10.17599 -10.17599  -1.05722  -1.05616  -0.86904
 Alpha  occ. eigenvalues --   -0.85915  -0.81379  -0.80877  -0.78673  -0.75051
 Alpha  occ. eigenvalues --   -0.72962  -0.72934  -0.71863  -0.70439  -0.63021
 Alpha  occ. eigenvalues --   -0.62607  -0.61036  -0.61010  -0.59685  -0.56698
 Alpha  occ. eigenvalues --   -0.54686  -0.54467  -0.51649  -0.50163  -0.48928
 Alpha  occ. eigenvalues --   -0.48843  -0.46360  -0.46310  -0.44344  -0.43243
 Alpha  occ. eigenvalues --   -0.42532  -0.42154  -0.41589  -0.41472  -0.41452
 Alpha  occ. eigenvalues --   -0.39726  -0.39231  -0.39071  -0.38726  -0.36672
 Alpha  occ. eigenvalues --   -0.36102  -0.35768  -0.35099  -0.34082  -0.33811
 Alpha  occ. eigenvalues --   -0.33112  -0.31363  -0.30382  -0.29870  -0.28284
 Alpha  occ. eigenvalues --   -0.25535  -0.22756  -0.22532  -0.20541  -0.18984
 Alpha virt. eigenvalues --   -0.04175  -0.02109   0.00317   0.00634   0.03150
 Alpha virt. eigenvalues --    0.05009   0.06990   0.07032   0.10010   0.10315
 Alpha virt. eigenvalues --    0.10820   0.11464   0.11938   0.12073   0.14383
 Alpha virt. eigenvalues --    0.15445   0.17522   0.17551   0.18763   0.18966
 Alpha virt. eigenvalues --    0.19928   0.20128   0.20500   0.21606   0.23025
 Alpha virt. eigenvalues --    0.24379   0.26100   0.27475   0.27706   0.29521
 Alpha virt. eigenvalues --    0.30900   0.31839   0.32338   0.32528   0.33570
 Alpha virt. eigenvalues --    0.34775   0.36453   0.36954   0.36968   0.39845
 Alpha virt. eigenvalues --    0.40846   0.48528   0.49453   0.50352   0.50408
 Alpha virt. eigenvalues --    0.50974   0.51435   0.52516   0.52616   0.53618
 Alpha virt. eigenvalues --    0.53954   0.54568   0.55569   0.55665   0.56039
 Alpha virt. eigenvalues --    0.56060   0.56665   0.57086   0.57245   0.59414
 Alpha virt. eigenvalues --    0.59639   0.60313   0.60557   0.60825   0.60944
 Alpha virt. eigenvalues --    0.61597   0.62041   0.62344   0.62904   0.63006
 Alpha virt. eigenvalues --    0.63077   0.63646   0.63714   0.64813   0.64952
 Alpha virt. eigenvalues --    0.66453   0.67249   0.67325   0.67603   0.68707
 Alpha virt. eigenvalues --    0.70776   0.71845   0.73973   0.75738   0.77559
 Alpha virt. eigenvalues --    0.79188   0.79930   0.82100   0.82140   0.84059
 Alpha virt. eigenvalues --    0.84220   0.84403   0.84732   0.85079   0.86133
 Alpha virt. eigenvalues --    0.86430   0.87458   0.88336   0.88870   0.89275
 Alpha virt. eigenvalues --    0.89810   0.90522   0.90672   0.91639   0.93609
 Alpha virt. eigenvalues --    0.93982   0.95029   0.95203   0.95549   0.98363
 Alpha virt. eigenvalues --    0.98649   1.00107   1.01728   1.02724   1.02856
 Alpha virt. eigenvalues --    1.03800   1.06145   1.06659   1.07273   1.08676
 Alpha virt. eigenvalues --    1.09459   1.10808   1.12417   1.13307   1.15277
 Alpha virt. eigenvalues --    1.17106   1.17393   1.18991   1.22154   1.23008
 Alpha virt. eigenvalues --    1.24122   1.26035   1.26970   1.28323   1.28627
 Alpha virt. eigenvalues --    1.30803   1.31066   1.31816   1.33637   1.35595
 Alpha virt. eigenvalues --    1.35726   1.39274   1.39700   1.41074   1.41932
 Alpha virt. eigenvalues --    1.43326   1.43458   1.46038   1.47112   1.47135
 Alpha virt. eigenvalues --    1.48262   1.48538   1.48878   1.50122   1.50605
 Alpha virt. eigenvalues --    1.51483   1.51580   1.52703   1.52829   1.56419
 Alpha virt. eigenvalues --    1.61140   1.63996   1.70843   1.71643   1.74381
 Alpha virt. eigenvalues --    1.76256   1.76865   1.77607   1.78707   1.79100
 Alpha virt. eigenvalues --    1.79654   1.79660   1.80734   1.83483   1.85047
 Alpha virt. eigenvalues --    1.85536   1.87035   1.90081   1.90735   1.91064
 Alpha virt. eigenvalues --    1.91842   1.92197   1.93217   1.93232   1.94786
 Alpha virt. eigenvalues --    1.94940   1.97796   1.98473   1.99233   2.00706
 Alpha virt. eigenvalues --    2.02012   2.02300   2.04986   2.05679   2.06481
 Alpha virt. eigenvalues --    2.06722   2.07467   2.07848   2.14400   2.15109
 Alpha virt. eigenvalues --    2.15895   2.16781   2.20124   2.20603   2.21841
 Alpha virt. eigenvalues --    2.22592   2.23673   2.26458   2.27598   2.28983
 Alpha virt. eigenvalues --    2.30729   2.31873   2.33733   2.33805   2.34052
 Alpha virt. eigenvalues --    2.34278   2.35529   2.35723   2.37059   2.38986
 Alpha virt. eigenvalues --    2.40167   2.41115   2.46739   2.48171   2.50410
 Alpha virt. eigenvalues --    2.50762   2.57580   2.58710   2.60625   2.61126
 Alpha virt. eigenvalues --    2.62052   2.63925   2.64403   2.65018   2.65887
 Alpha virt. eigenvalues --    2.66480   2.67959   2.68161   2.70236   2.74637
 Alpha virt. eigenvalues --    2.75561   2.76819   2.80169   2.81647   2.83620
 Alpha virt. eigenvalues --    2.85144   2.87106   2.87736   2.88112   2.90144
 Alpha virt. eigenvalues --    2.92274   2.97413   3.02878   3.05688   3.06352
 Alpha virt. eigenvalues --    3.14580   3.19467   3.35663   3.39280   3.47174
 Alpha virt. eigenvalues --    3.49809   3.95381   4.06137   4.09865   4.10181
 Alpha virt. eigenvalues --    4.10885   4.11332   4.14608   4.15643   4.16082
 Alpha virt. eigenvalues --    4.16377   4.22337   4.30002   4.30149   4.31058
 Alpha virt. eigenvalues --    4.40929   4.41057   4.43579   4.48982   4.57199
 Alpha virt. eigenvalues --    4.63108   4.80367   4.89385
          Condensed to atoms (all electrons):
               1          2          3          4          5          6
     1  C    4.907411   0.519578  -0.002448  -0.038659  -0.021857   0.494425
     2  C    0.519578   5.105613   0.450744  -0.047890  -0.067930  -0.019743
     3  C   -0.002448   0.450744   4.809076   0.447803  -0.028624  -0.038503
     4  C   -0.038659  -0.047890   0.447803   4.759306   0.452554  -0.005976
     5  C   -0.021857  -0.067930  -0.028624   0.452554   5.089395   0.520181
     6  C    0.494425  -0.019743  -0.038503  -0.005976   0.520181   4.908426
     7  H    0.356968  -0.038088   0.003002   0.000991   0.004519  -0.043211
     8  H   -0.046639   0.343949  -0.030737   0.005712   0.000537   0.004683
     9  C    0.008038  -0.086172   0.403116  -0.014695   0.013437  -0.000664
    10  C   -0.000538   0.015459  -0.019756   0.432213  -0.086478   0.008219
    11  H    0.004709   0.000500   0.004270  -0.043922   0.354392  -0.045747
    12  H   -0.040966   0.004191   0.001034   0.002784  -0.037429   0.355615
    13  C    0.000068  -0.001068  -0.055924   0.002559   0.009345  -0.000430
    14  C   -0.000262   0.012055   0.013891  -0.057576  -0.000762   0.000040
    15  H    0.000013  -0.000199   0.004489  -0.037327  -0.008382   0.000204
    16  H   -0.000000   0.000015   0.000979   0.002333  -0.000205   0.000004
    17  C    0.000000   0.000000  -0.000001   0.000000  -0.000000  -0.000000
    18  C   -0.000000   0.000001  -0.000001  -0.000000   0.000000  -0.000000
    19  C   -0.000002   0.000013   0.000061   0.000000  -0.000000   0.000000
    20  C    0.000044  -0.000295  -0.000123   0.000061  -0.000001  -0.000001
    21  C   -0.000001   0.000011  -0.000295   0.000013   0.000001   0.000000
    22  C   -0.000000  -0.000001   0.000044  -0.000002  -0.000000   0.000000
    23  H   -0.000000  -0.000000   0.000000   0.000000  -0.000000   0.000000
    24  H    0.000000  -0.000000   0.000000  -0.000000  -0.000000   0.000000
    25  H   -0.000000   0.000000  -0.000000   0.000000  -0.000000   0.000000
    26  C    0.000000  -0.000060  -0.000002   0.000000  -0.000000   0.000000
    27  C    0.001291  -0.022680  -0.061549   0.008482  -0.000060  -0.000030
    28  H    0.000002  -0.000013  -0.000200  -0.000045  -0.000003   0.000000
    29  H   -0.000000  -0.000000  -0.000000   0.000000   0.000000   0.000000
    30  C   -0.000009   0.001547  -0.010387  -0.000050  -0.000017  -0.000002
    31  C   -0.000046  -0.001049   0.001026   0.000011  -0.000000   0.000000
    32  H    0.000001   0.000027  -0.000012  -0.000000   0.000000  -0.000000
    33  O    0.000000  -0.000053   0.002304   0.000238  -0.000000  -0.000000
    34  H   -0.000000   0.000006   0.000114  -0.000112  -0.000001   0.000000
    35  O   -0.000647   0.001563  -0.005274  -0.000461  -0.000000   0.000009
    36  H    0.000049   0.000288   0.000057   0.000008  -0.000000  -0.000001
               7          8          9         10         11         12
     1  C    0.356968  -0.046639   0.008038  -0.000538   0.004709  -0.040966
     2  C   -0.038088   0.343949  -0.086172   0.015459   0.000500   0.004191
     3  C    0.003002  -0.030737   0.403116  -0.019756   0.004270   0.001034
     4  C    0.000991   0.005712  -0.014695   0.432213  -0.043922   0.002784
     5  C    0.004519   0.000537   0.013437  -0.086478   0.354392  -0.037429
     6  C   -0.043211   0.004683  -0.000664   0.008219  -0.045747   0.355615
     7  H    0.603698  -0.005919  -0.000177   0.000008  -0.000201  -0.004829
     8  H   -0.005919   0.595638  -0.015389  -0.000192   0.000019  -0.000190
     9  C   -0.000177  -0.015389   5.266604  -0.064213  -0.000160   0.000015
    10  C    0.000008  -0.000192  -0.064213   5.133511  -0.008936  -0.000203
    11  H   -0.000201   0.000019  -0.000160  -0.008936   0.609255  -0.005428
    12  H   -0.004829  -0.000190   0.000015  -0.000203  -0.005428   0.600930
    13  C   -0.000000   0.000017  -0.033537   0.446013   0.000345   0.000004
    14  C    0.000003  -0.000117   0.422955   0.012817   0.000009  -0.000000
    15  H   -0.000000   0.000002   0.000658   0.349271   0.006830  -0.000013
    16  H   -0.000000   0.000000   0.003876  -0.027396  -0.000012  -0.000000
    17  C    0.000000   0.000000  -0.000030   0.000000   0.000000   0.000000
    18  C    0.000000  -0.000003  -0.000060  -0.000000  -0.000000  -0.000000
    19  C    0.000000  -0.000045   0.008482   0.000000   0.000000  -0.000000
    20  C   -0.000000  -0.000199  -0.061550  -0.000002  -0.000000   0.000000
    21  C   -0.000000  -0.000013  -0.022680  -0.000060   0.000000  -0.000000
    22  C   -0.000000   0.000002   0.001291   0.000000  -0.000000   0.000000
    23  H   -0.000000  -0.000001   0.000010  -0.000000   0.000000   0.000000
    24  H   -0.000000  -0.000000   0.000000   0.000000  -0.000000   0.000000
    25  H    0.000000   0.000000   0.000001  -0.000000   0.000000  -0.000000
    26  C   -0.000000   0.000023  -0.000984  -0.000000  -0.000000   0.000000
    27  C   -0.000001   0.006377   0.287052  -0.000984   0.000001   0.000000
    28  H   -0.000000  -0.000006   0.006377   0.000023   0.000000  -0.000000
    29  H    0.000000  -0.000000  -0.000001  -0.000000   0.000000  -0.000000
    30  C    0.000009   0.009465  -0.057693   0.000047   0.000000  -0.000000
    31  C   -0.000001   0.001974   0.007611  -0.000000   0.000000   0.000000
    32  H    0.000000   0.000013  -0.000123   0.000000  -0.000000  -0.000000
    33  O   -0.000000  -0.000001  -0.060436   0.005071  -0.000000   0.000000
    34  H    0.000000   0.000000   0.006854   0.000940  -0.000000  -0.000000
    35  O   -0.000014  -0.003889   0.002850   0.000011   0.000000   0.000000
    36  H    0.000001   0.000320  -0.000372  -0.000000  -0.000000  -0.000000
              13         14         15         16         17         18
     1  C    0.000068  -0.000262   0.000013  -0.000000   0.000000  -0.000000
     2  C   -0.001068   0.012055  -0.000199   0.000015   0.000000   0.000001
     3  C   -0.055924   0.013891   0.004489   0.000979  -0.000001  -0.000001
     4  C    0.002559  -0.057576  -0.037327   0.002333   0.000000  -0.000000
     5  C    0.009345  -0.000762  -0.008382  -0.000205  -0.000000   0.000000
     6  C   -0.000430   0.000040   0.000204   0.000004  -0.000000  -0.000000
     7  H   -0.000000   0.000003  -0.000000  -0.000000   0.000000   0.000000
     8  H    0.000017  -0.000117   0.000002   0.000000   0.000000  -0.000003
     9  C   -0.033537   0.422955   0.000658   0.003876  -0.000030  -0.000060
    10  C    0.446013   0.012817   0.349271  -0.027396   0.000000  -0.000000
    11  H    0.000345   0.000009   0.006830  -0.000012   0.000000  -0.000000
    12  H    0.000004  -0.000000  -0.000013  -0.000000   0.000000  -0.000000
    13  C    5.181059   0.411123  -0.040008   0.340455   0.000000  -0.000000
    14  C    0.411123   4.754780   0.003125  -0.041961  -0.000002  -0.000017
    15  H   -0.040008   0.003125   0.594683  -0.005338   0.000000  -0.000000
    16  H    0.340455  -0.041961  -0.005338   0.605479  -0.000000   0.000000
    17  C    0.000000  -0.000002   0.000000  -0.000000   4.908427   0.520181
    18  C   -0.000000  -0.000017  -0.000000   0.000000   0.520181   5.089395
    19  C    0.000011  -0.000050   0.000000  -0.000000  -0.005976   0.452554
    20  C    0.001026  -0.010388   0.000000  -0.000012  -0.038503  -0.028624
    21  C   -0.001049   0.001547  -0.000000   0.000027  -0.019743  -0.067930
    22  C   -0.000046  -0.000009  -0.000000   0.000001   0.494425  -0.021857
    23  H    0.000000  -0.000000  -0.000000  -0.000000   0.000204  -0.008381
    24  H    0.000000  -0.000000   0.000000  -0.000000   0.355615  -0.037429
    25  H    0.000000   0.000000   0.000000  -0.000000  -0.045747   0.354392
    26  C   -0.000000   0.000047  -0.000000   0.000000   0.008219  -0.086478
    27  C    0.007611  -0.057692   0.000010  -0.000123  -0.000664   0.013437
    28  H    0.001974   0.009465  -0.000001   0.000013   0.004683   0.000537
    29  H   -0.000001   0.000009  -0.000000   0.000000  -0.043211   0.004519
    30  C   -0.000288   0.005264  -0.000000   0.000002   0.000040  -0.000762
    31  C    0.000002  -0.000288   0.000000  -0.000000  -0.000430   0.009345
    32  H   -0.000000   0.000002  -0.000000   0.000000   0.000004  -0.000205
    33  O   -0.063054   0.270777  -0.000059  -0.005594   0.000009  -0.000000
    34  H   -0.005945  -0.032065  -0.000017   0.008422  -0.000001  -0.000000
    35  O   -0.000017  -0.000159   0.000000   0.000000  -0.000000  -0.000000
    36  H   -0.000000   0.000020  -0.000000   0.000000   0.000000  -0.000001
              19         20         21         22         23         24
     1  C   -0.000002   0.000044  -0.000001  -0.000000  -0.000000   0.000000
     2  C    0.000013  -0.000295   0.000011  -0.000001  -0.000000  -0.000000
     3  C    0.000061  -0.000123  -0.000295   0.000044   0.000000   0.000000
     4  C    0.000000   0.000061   0.000013  -0.000002   0.000000  -0.000000
     5  C   -0.000000  -0.000001   0.000001  -0.000000  -0.000000  -0.000000
     6  C    0.000000  -0.000001   0.000000   0.000000   0.000000   0.000000
     7  H    0.000000  -0.000000  -0.000000  -0.000000  -0.000000  -0.000000
     8  H   -0.000045  -0.000199  -0.000013   0.000002  -0.000001  -0.000000
     9  C    0.008482  -0.061550  -0.022680   0.001291   0.000010   0.000000
    10  C    0.000000  -0.000002  -0.000060   0.000000  -0.000000   0.000000
    11  H    0.000000  -0.000000   0.000000  -0.000000   0.000000  -0.000000
    12  H   -0.000000   0.000000  -0.000000   0.000000   0.000000   0.000000
    13  C    0.000011   0.001026  -0.001049  -0.000046   0.000000   0.000000
    14  C   -0.000050  -0.010388   0.001547  -0.000009  -0.000000  -0.000000
    15  H    0.000000   0.000000  -0.000000  -0.000000  -0.000000   0.000000
    16  H   -0.000000  -0.000012   0.000027   0.000001  -0.000000  -0.000000
    17  C   -0.005976  -0.038503  -0.019743   0.494425   0.000204   0.355615
    18  C    0.452554  -0.028624  -0.067930  -0.021857  -0.008381  -0.037429
    19  C    4.759305   0.447803  -0.047890  -0.038659  -0.037326   0.002784
    20  C    0.447803   4.809079   0.450744  -0.002448   0.004489   0.001034
    21  C   -0.047890   0.450744   5.105613   0.519578  -0.000199   0.004191
    22  C   -0.038659  -0.002448   0.519578   4.907411   0.000013  -0.040966
    23  H   -0.037326   0.004489  -0.000199   0.000013   0.594683  -0.000013
    24  H    0.002784   0.001034   0.004191  -0.040966  -0.000013   0.600930
    25  H   -0.043923   0.004270   0.000500   0.004709   0.006830  -0.005428
    26  C    0.432212  -0.019755   0.015459  -0.000538   0.349271  -0.000203
    27  C   -0.014696   0.403116  -0.086172   0.008038   0.000658   0.000015
    28  H    0.005712  -0.030737   0.343949  -0.046639   0.000002  -0.000190
    29  H    0.000991   0.003002  -0.038088   0.356967  -0.000000  -0.004829
    30  C   -0.057576   0.013892   0.012055  -0.000262   0.003125  -0.000000
    31  C    0.002559  -0.055924  -0.001068   0.000068  -0.040008   0.000004
    32  H    0.002333   0.000979   0.000015  -0.000000  -0.005338  -0.000000
    33  O   -0.000461  -0.005274   0.001562  -0.000647   0.000000   0.000000
    34  H    0.000008   0.000057   0.000288   0.000049  -0.000000  -0.000000
    35  O    0.000238   0.002304  -0.000053   0.000000  -0.000059   0.000000
    36  H   -0.000112   0.000114   0.000006  -0.000000  -0.000017  -0.000000
              25         26         27         28         29         30
     1  C   -0.000000   0.000000   0.001291   0.000002  -0.000000  -0.000009
     2  C    0.000000  -0.000060  -0.022680  -0.000013  -0.000000   0.001547
     3  C   -0.000000  -0.000002  -0.061549  -0.000200  -0.000000  -0.010387
     4  C    0.000000   0.000000   0.008482  -0.000045   0.000000  -0.000050
     5  C   -0.000000  -0.000000  -0.000060  -0.000003   0.000000  -0.000017
     6  C    0.000000   0.000000  -0.000030   0.000000   0.000000  -0.000002
     7  H    0.000000  -0.000000  -0.000001  -0.000000   0.000000   0.000009
     8  H    0.000000   0.000023   0.006377  -0.000006  -0.000000   0.009465
     9  C    0.000001  -0.000984   0.287052   0.006377  -0.000001  -0.057693
    10  C   -0.000000  -0.000000  -0.000984   0.000023  -0.000000   0.000047
    11  H    0.000000  -0.000000   0.000001   0.000000   0.000000   0.000000
    12  H   -0.000000   0.000000   0.000000  -0.000000  -0.000000  -0.000000
    13  C    0.000000  -0.000000   0.007611   0.001974  -0.000001  -0.000288
    14  C    0.000000   0.000047  -0.057692   0.009465   0.000009   0.005264
    15  H    0.000000  -0.000000   0.000010  -0.000001  -0.000000  -0.000000
    16  H   -0.000000   0.000000  -0.000123   0.000013   0.000000   0.000002
    17  C   -0.045747   0.008219  -0.000664   0.004683  -0.043211   0.000040
    18  C    0.354392  -0.086478   0.013437   0.000537   0.004519  -0.000762
    19  C   -0.043923   0.432212  -0.014696   0.005712   0.000991  -0.057576
    20  C    0.004270  -0.019755   0.403116  -0.030737   0.003002   0.013892
    21  C    0.000500   0.015459  -0.086172   0.343949  -0.038088   0.012055
    22  C    0.004709  -0.000538   0.008038  -0.046639   0.356967  -0.000262
    23  H    0.006830   0.349271   0.000658   0.000002  -0.000000   0.003125
    24  H   -0.005428  -0.000203   0.000015  -0.000190  -0.004829  -0.000000
    25  H    0.609255  -0.008936  -0.000160   0.000019  -0.000201   0.000009
    26  C   -0.008936   5.133513  -0.064213  -0.000192   0.000008   0.012817
    27  C   -0.000160  -0.064213   5.266605  -0.015389  -0.000177   0.422954
    28  H    0.000019  -0.000192  -0.015389   0.595639  -0.005919  -0.000117
    29  H   -0.000201   0.000008  -0.000177  -0.005919   0.603699   0.000003
    30  C    0.000009   0.012817   0.422954  -0.000117   0.000003   4.754778
    31  C    0.000345   0.446012  -0.033538   0.000017  -0.000000   0.411125
    32  H   -0.000012  -0.027396   0.003876   0.000000  -0.000000  -0.041961
    33  O    0.000000   0.000011   0.002850  -0.003889  -0.000014  -0.000159
    34  H   -0.000000  -0.000000  -0.000372   0.000320   0.000001   0.000020
    35  O   -0.000000   0.005071  -0.060437  -0.000001  -0.000000   0.270777
    36  H   -0.000000   0.000940   0.006854   0.000000   0.000000  -0.032065
              31         32         33         34         35         36
     1  C   -0.000046   0.000001   0.000000  -0.000000  -0.000647   0.000049
     2  C   -0.001049   0.000027  -0.000053   0.000006   0.001563   0.000288
     3  C    0.001026  -0.000012   0.002304   0.000114  -0.005274   0.000057
     4  C    0.000011  -0.000000   0.000238  -0.000112  -0.000461   0.000008
     5  C   -0.000000   0.000000  -0.000000  -0.000001  -0.000000  -0.000000
     6  C    0.000000  -0.000000  -0.000000   0.000000   0.000009  -0.000001
     7  H   -0.000001   0.000000  -0.000000   0.000000  -0.000014   0.000001
     8  H    0.001974   0.000013  -0.000001   0.000000  -0.003889   0.000320
     9  C    0.007611  -0.000123  -0.060436   0.006854   0.002850  -0.000372
    10  C   -0.000000   0.000000   0.005071   0.000940   0.000011  -0.000000
    11  H    0.000000  -0.000000  -0.000000  -0.000000   0.000000  -0.000000
    12  H    0.000000  -0.000000   0.000000  -0.000000   0.000000  -0.000000
    13  C    0.000002  -0.000000  -0.063054  -0.005945  -0.000017  -0.000000
    14  C   -0.000288   0.000002   0.270777  -0.032065  -0.000159   0.000020
    15  H    0.000000  -0.000000  -0.000059  -0.000017   0.000000  -0.000000
    16  H   -0.000000   0.000000  -0.005594   0.008422   0.000000   0.000000
    17  C   -0.000430   0.000004   0.000009  -0.000001  -0.000000   0.000000
    18  C    0.009345  -0.000205  -0.000000  -0.000000  -0.000000  -0.000001
    19  C    0.002559   0.002333  -0.000461   0.000008   0.000238  -0.000112
    20  C   -0.055924   0.000979  -0.005274   0.000057   0.002304   0.000114
    21  C   -0.001068   0.000015   0.001562   0.000288  -0.000053   0.000006
    22  C    0.000068  -0.000000  -0.000647   0.000049   0.000000  -0.000000
    23  H   -0.040008  -0.005338   0.000000  -0.000000  -0.000059  -0.000017
    24  H    0.000004  -0.000000   0.000000  -0.000000   0.000000  -0.000000
    25  H    0.000345  -0.000012   0.000000  -0.000000  -0.000000  -0.000000
    26  C    0.446012  -0.027396   0.000011  -0.000000   0.005071   0.000940
    27  C   -0.033538   0.003876   0.002850  -0.000372  -0.060437   0.006854
    28  H    0.000017   0.000000  -0.003889   0.000320  -0.000001   0.000000
    29  H   -0.000000  -0.000000  -0.000014   0.000001  -0.000000   0.000000
    30  C    0.411125  -0.041961  -0.000159   0.000020   0.270777  -0.032065
    31  C    5.181061   0.340455  -0.000017  -0.000000  -0.063054  -0.005945
    32  H    0.340455   0.605479   0.000000   0.000000  -0.005594   0.008422
    33  O   -0.000017   0.000000   8.248444   0.242787   0.000001  -0.000000
    34  H   -0.000000   0.000000   0.242787   0.372317  -0.000000  -0.000000
    35  O   -0.063054  -0.005594   0.000001  -0.000000   8.248443   0.242787
    36  H   -0.005945   0.008422  -0.000000  -0.000000   0.242787   0.372317
 Mulliken charges:
               1
     1  C   -0.140523
     2  C   -0.170316
     3  C    0.111824
     4  C    0.131648
     5  C   -0.192610
     6  C   -0.137500
     7  H    0.123242
     8  H    0.134607
     9  C   -0.020293
    10  C   -0.194847
    11  H    0.124077
    12  H    0.124486
    13  C   -0.200246
    14  C    0.283421
    15  H    0.132057
    16  H    0.119037
    17  C   -0.137500
    18  C   -0.192610
    19  C    0.131649
    20  C    0.111821
    21  C   -0.170317
    22  C   -0.140523
    23  H    0.132058
    24  H    0.124486
    25  H    0.124077
    26  C   -0.194848
    27  C   -0.020294
    28  H    0.134607
    29  H    0.123242
    30  C    0.283421
    31  C   -0.200247
    32  H    0.119037
    33  O   -0.634395
    34  H    0.406334
    35  O   -0.634396
    36  H    0.406334
 Sum of Mulliken charges =  -0.00000
 Mulliken charges with hydrogens summed into heavy atoms:
               1
     1  C   -0.017281
     2  C   -0.035709
     3  C    0.111824
     4  C    0.131648
     5  C   -0.068534
     6  C   -0.013013
     9  C   -0.020293
    10  C   -0.062790
    13  C   -0.081209
    14  C    0.283421
    17  C   -0.013014
    18  C   -0.068533
    19  C    0.131649
    20  C    0.111821
    21  C   -0.035710
    22  C   -0.017281
    26  C   -0.062790
    27  C   -0.020294
    30  C    0.283421
    31  C   -0.081210
    33  O   -0.228061
    35  O   -0.228062
 Electronic spatial extent (au):  <R**2>=           5983.7985
 Charge=             -0.0000 electrons
 Dipole moment (field-independent basis, Debye):
    X=             -0.0000    Y=             -0.0000    Z=             -0.4422  Tot=              0.4422
 Quadrupole moment (field-independent basis, Debye-Ang):
   XX=           -116.7240   YY=            -99.5034   ZZ=           -125.9993
   XY=              5.9780   XZ=             -0.0001   YZ=              0.0001
 Traceless Quadrupole moment (field-independent basis, Debye-Ang):
   XX=             -2.6484   YY=             14.5722   ZZ=            -11.9237
   XY=              5.9780   XZ=             -0.0001   YZ=              0.0001
 Octapole moment (field-independent basis, Debye-Ang**2):
  XXX=             -0.0001  YYY=              0.0002  ZZZ=            -22.3207  XYY=              0.0005
  XXY=              0.0002  XXZ=             21.5010  XZZ=             -0.0000  YZZ=              0.0000
  YYZ=            -38.3199  XYZ=            -20.5580
 Hexadecapole moment (field-independent basis, Debye-Ang**3):
 XXXX=          -4929.1136 YYYY=          -1678.0466 ZZZZ=           -884.9085 XXXY=             72.2758
 XXXZ=             -0.0013 YYYX=             19.4232 YYYZ=             -0.0005 ZZZX=             -0.0009
 ZZZY=              0.0002 XXYY=          -1150.5648 XXZZ=          -1044.2281 YYZZ=           -386.6205
 XXYZ=              0.0004 YYXZ=             -0.0010 ZZXY=            -32.8101
 N-N= 1.675656591533D+03 E-N=-5.491428944118D+03  KE= 9.123028056223D+02
 Unable to Open any file for archive entry.
 1\1\GINC-CCC135\SP\RB3LYP TD-FC\6-31G(d)\C20H14O2\ROOT\20-Feb-2025\0\\
 # td=(nstat=16) b3lyp/6-31g(d)\\binol | No.6\\0,1\C,0,-2.95636,-1.8868
 32,-1.412763\C,0,-1.825175,-1.410242,-0.78853\C,0,-1.817391,-0.161416,
 -0.104298\C,0,-3.026505,0.612977,-0.158452\C,0,-4.184773,0.083765,-0.7
 88469\C,0,-4.161721,-1.148063,-1.397448\H,0,-2.91792,-2.841,-1.932295\
 H,0,-0.912111,-1.988027,-0.842107\C,0,-0.654208,0.362904,0.573867\C,0,
 -3.032345,1.928414,0.369113\H,0,-5.089439,0.687849,-0.79477\H,0,-5.050
 47,-1.541769,-1.882888\C,0,-1.89287,2.463831,0.909124\C,0,-0.707043,1.
 693229,0.987953\H,0,-3.94678,2.514528,0.322806\H,0,-1.888395,3.481673,
 1.296393\C,0,4.161708,1.148082,-1.397448\C,0,4.184769,-0.08375,-0.7884
 76\C,0,3.026504,-0.612972,-0.158461\C,0,1.817384,0.16141,-0.104304\C,0
 ,1.825161,1.410241,-0.788528\C,0,2.956342,1.886842,-1.412758\H,0,3.946
 796,-2.514518,0.322789\H,0,5.050455,1.541797,-1.882887\H,0,5.089439,-0
 .687827,-0.794779\C,0,3.032357,-1.92841,0.369098\C,0,0.654199,-0.36291
 4,0.573857\H,0,0.912093,1.988021,-0.8421\H,0,2.917896,2.841013,-1.9322
 84\C,0,0.707053,-1.69324,0.987941\C,0,1.892885,-2.463834,0.909109\H,0,
 1.888418,-3.481676,1.296379\O,0,0.396403,2.22472,1.603249\H,0,0.199179
 ,3.136522,1.866503\O,0,-0.396382,-2.224742,1.603247\H,0,-0.199146,-3.1
 36541,1.866501\\Version=ES64L-G16RevC.02\State=1-A\HF=-921.0053152\RMS
 D=6.877e-09\PG=C01 [X(C20H14O2)]\\@
 The archive entry for this job was punched.


 WE DON'T KNOW ONE MILLIONTH OF ONE PERCENT ABOUT
 ANYTHING.
                                     T. A. EDISON.
 Job cpu time:       0 days  0 hours 40 minutes 52.3 seconds.
 Elapsed time:       0 days  0 hours  5 minutes 17.1 seconds.
 File lengths (MBytes):  RWF=   1295 Int=      0 D2E=      0 Chk=     78 Scr=      1
 Normal termination of Gaussian 16 at Thu Feb 20 09:32:12 2025.
