 Entering Gaussian System, Link 0=/apl/gaussian/16c02/g16/._.g16
 Initial command:
 /apl/gaussian/16c02/g16/l1.exe "/lwork/users/ux8/8279358.ccpbs1/gaussian/Gau-1403287.inp" -scrdir="/lwork/users/ux8/8279358.ccpbs1/gaussian/"
 Default CPUs for threads: 120,121,122,123,124,125,126,127
 Default is to use a total of   8 processors:
                                8 via shared-memory
                                1 via Linda
 Entering Link 1 = /apl/gaussian/16c02/g16/l1.exe PID=   1403289.
  
 Copyright (c) 1988-2021, Gaussian, Inc.  All Rights Reserved.
  
 This is part of the Gaussian(R) 16 program.  It is based on
 the Gaussian(R) 09 system (copyright 2009, Gaussian, Inc.),
 the Gaussian(R) 03 system (copyright 2003, Gaussian, Inc.),
 the Gaussian(R) 98 system (copyright 1998, Gaussian, Inc.),
 the Gaussian(R) 94 system (copyright 1995, Gaussian, Inc.),
 the Gaussian 92(TM) system (copyright 1992, Gaussian, Inc.),
 the Gaussian 90(TM) system (copyright 1990, Gaussian, Inc.),
 the Gaussian 88(TM) system (copyright 1988, Gaussian, Inc.),
 the Gaussian 86(TM) system (copyright 1986, Carnegie Mellon
 University), and the Gaussian 82(TM) system (copyright 1983,
 Carnegie Mellon University). Gaussian is a federally registered
 trademark of Gaussian, Inc.
  
 This software contains proprietary and confidential information,
 including trade secrets, belonging to Gaussian, Inc.
  
 This software is provided under written license and may be
 used, copied, transmitted, or stored only in accord with that
 written license.
  
 The following legend is applicable only to US Government
 contracts under FAR:
  
                    RESTRICTED RIGHTS LEGEND
  
 Use, reproduction and disclosure by the US Government is
 subject to restrictions as set forth in subparagraphs (a)
 and (c) of the Commercial Computer Software - Restricted
 Rights clause in FAR 52.227-19.
  
 Gaussian, Inc.
 340 Quinnipiac St., Bldg. 40, Wallingford CT 06492
  
  
 ---------------------------------------------------------------
 Warning -- This program may not be used in any manner that
 competes with the business of Gaussian, Inc. or will provide
 assistance to any competitor of Gaussian, Inc.  The licensee
 of this program is prohibited from giving any competitor of
 Gaussian, Inc. access to this program.  By using this program,
 the user acknowledges that Gaussian, Inc. is engaged in the
 business of creating and licensing software in the field of
 computational chemistry and represents and warrants to the
 licensee that it is not a competitor of Gaussian, Inc. and that
 it will not use this program in any manner prohibited above.
 ---------------------------------------------------------------
  

 Cite this work as:
 Gaussian 16, Revision C.02,
 M. J. Frisch, G. W. Trucks, H. B. Schlegel, G. E. Scuseria, 
 M. A. Robb, J. R. Cheeseman, G. Scalmani, V. Barone, 
 G. A. Petersson, H. Nakatsuji, X. Li, M. Caricato, A. V. Marenich, 
 J. Bloino, B. G. Janesko, R. Gomperts, B. Mennucci, H. P. Hratchian, 
 J. V. Ortiz, A. F. Izmaylov, J. L. Sonnenberg, D. Williams-Young, 
 F. Ding, F. Lipparini, F. Egidi, J. Goings, B. Peng, A. Petrone, 
 T. Henderson, D. Ranasinghe, V. G. Zakrzewski, J. Gao, N. Rega, 
 G. Zheng, W. Liang, M. Hada, M. Ehara, K. Toyota, R. Fukuda, 
 J. Hasegawa, M. Ishida, T. Nakajima, Y. Honda, O. Kitao, H. Nakai, 
 T. Vreven, K. Throssell, J. A. Montgomery, Jr., J. E. Peralta, 
 F. Ogliaro, M. J. Bearpark, J. J. Heyd, E. N. Brothers, K. N. Kudin, 
 V. N. Staroverov, T. A. Keith, R. Kobayashi, J. Normand, 
 K. Raghavachari, A. P. Rendell, J. C. Burant, S. S. Iyengar, 
 J. Tomasi, M. Cossi, J. M. Millam, M. Klene, C. Adamo, R. Cammi, 
 J. W. Ochterski, R. L. Martin, K. Morokuma, O. Farkas, 
 J. B. Foresman, and D. J. Fox, Gaussian, Inc., Wallingford CT, 2019.
 
 ******************************************
 Gaussian 16:  ES64L-G16RevC.02  7-Dec-2021
                20-Feb-2025 
 ******************************************
 %chk=binol.004.tddft.chk
 %mem=9600MB
 SetSPE:  set environment variable "OMP_PROC_BIND" = "true"
 SetSPE:  set environment variable "OMP_PLACES" = "{120},{121},{122},{123},{124},{125},{126},{127}"
 ------------------------------
 # td=(nstat=16) b3lyp/6-31g(d)
 ------------------------------
 1/38=1,172=1/1;
 2/12=2,17=6,18=5,40=1/2;
 3/5=1,6=6,7=1,11=9,25=1,30=1,74=-5/1,2,3,8;
 4//1;
 5/5=2,38=5/2;
 8/6=1,10=2,108=16/1;
 9/41=16,42=1,70=2/14;
 6/7=2,8=2,9=2,10=2/1;
 99/5=1,9=1/99;
 ------------
 binol | No.4
 ------------
 Symbolic Z-matrix:
 Charge =  0 Multiplicity = 1
 C                    -2.86768  -1.87289  -1.57216 
 C                    -1.75715  -1.39195  -0.91582 
 C                    -1.79947  -0.17066  -0.18615 
 C                    -3.03656   0.55748  -0.18304 
 C                    -4.16722   0.0287   -0.8614 
 C                    -4.09239  -1.16455  -1.54057 
 H                    -2.80205  -2.80654  -2.12506 
 H                    -0.82456  -1.9422   -0.96222 
 C                    -0.65773   0.35425   0.5084 
 C                    -3.09735   1.80864   0.4811 
 H                    -5.09588   0.59486  -0.83871 
 H                    -4.96225  -1.55875  -2.05884 
 C                    -1.98973   2.32375   1.10553 
 C                    -0.77033   1.60184   1.11174 
 H                    -4.03343   2.36165   0.48372 
 H                    -2.03805   3.28806   1.60936 
 C                     4.09239   1.16455  -1.54057 
 C                     4.16722  -0.0287   -0.8614 
 C                     3.03656  -0.55748  -0.18304 
 C                     1.79947   0.17066  -0.18615 
 C                     1.75715   1.39195  -0.91582 
 C                     2.86768   1.87289  -1.57216 
 H                     4.03343  -2.36165   0.48372 
 H                     4.96225   1.55875  -2.05884 
 H                     5.09588  -0.59486  -0.83871 
 C                     3.09735  -1.80864   0.4811 
 C                     0.65773  -0.35425   0.5084 
 H                     0.82456   1.9422   -0.96222 
 H                     2.80205   2.80654  -2.12506 
 C                     0.77033  -1.60184   1.11174 
 C                     1.98973  -2.32375   1.10553 
 H                     2.03805  -3.28806   1.60936 
 O                     0.32422   2.10946   1.75934 
 H                     0.09361   2.97442   2.13131 
 O                    -0.32422  -2.10946   1.75934 
 H                    -0.09361  -2.97442   2.13131 
 
                          Input orientation:                          
 ---------------------------------------------------------------------
 Center     Atomic      Atomic             Coordinates (Angstroms)
 Number     Number       Type             X           Y           Z
 ---------------------------------------------------------------------
      1          6           0       -2.867679   -1.872886   -1.572161
      2          6           0       -1.757153   -1.391952   -0.915822
      3          6           0       -1.799470   -0.170657   -0.186153
      4          6           0       -3.036563    0.557478   -0.183044
      5          6           0       -4.167222    0.028700   -0.861395
      6          6           0       -4.092393   -1.164552   -1.540570
      7          1           0       -2.802054   -2.806535   -2.125059
      8          1           0       -0.824555   -1.942195   -0.962217
      9          6           0       -0.657725    0.354245    0.508401
     10          6           0       -3.097346    1.808637    0.481099
     11          1           0       -5.095883    0.594862   -0.838708
     12          1           0       -4.962245   -1.558747   -2.058836
     13          6           0       -1.989727    2.323754    1.105530
     14          6           0       -0.770326    1.601840    1.111744
     15          1           0       -4.033429    2.361648    0.483717
     16          1           0       -2.038055    3.288059    1.609358
     17          6           0        4.092393    1.164552   -1.540570
     18          6           0        4.167222   -0.028701   -0.861395
     19          6           0        3.036563   -0.557478   -0.183044
     20          6           0        1.799470    0.170657   -0.186153
     21          6           0        1.757153    1.391952   -0.915822
     22          6           0        2.867679    1.872886   -1.572161
     23          1           0        4.033429   -2.361648    0.483717
     24          1           0        4.962245    1.558747   -2.058836
     25          1           0        5.095883   -0.594863   -0.838707
     26          6           0        3.097346   -1.808637    0.481099
     27          6           0        0.657725   -0.354245    0.508401
     28          1           0        0.824555    1.942195   -0.962217
     29          1           0        2.802054    2.806535   -2.125059
     30          6           0        0.770326   -1.601840    1.111744
     31          6           0        1.989727   -2.323754    1.105530
     32          1           0        2.038055   -3.288059    1.609358
     33          8           0        0.324221    2.109460    1.759335
     34          1           0        0.093612    2.974420    2.131305
     35          8           0       -0.324221   -2.109460    1.759335
     36          1           0       -0.093612   -2.974420    2.131305
 ---------------------------------------------------------------------
                    Distance matrix (angstroms):
                    1          2          3          4          5
     1  C    0.000000
     2  C    1.376716   0.000000
     3  C    2.441244   1.423295   0.000000
     4  C    2.804432   2.444204   1.435475   0.000000
     5  C    2.410400   2.798151   2.470211   1.420618   0.000000
     6  C    1.415154   2.428038   2.842493   2.433730   1.375038
     7  H    1.087062   2.134272   3.422336   3.891401   3.391031
     8  H    2.133352   1.083817   2.165890   3.427602   3.881754
     9  C    3.764671   2.507261   1.435796   2.485613   3.781387
    10  C    4.221639   3.740491   2.459128   1.417808   2.472873
    11  H    3.404795   3.885935   3.446474   2.161502   1.087872
    12  H    2.173187   3.406892   3.928980   3.421294   2.141475
    13  C    5.054960   4.236322   2.815445   2.424050   3.725259
    14  C    4.865795   3.748018   2.425988   2.811227   4.231660
    15  H    4.849421   4.607565   3.442654   2.166412   2.696270
    16  H    6.119289   5.325218   3.904292   3.415523   4.611008
    17  C    7.594052   6.414297   6.191226   7.282405   8.364967
    18  C    7.307259   6.079444   6.006456   7.259358   8.334642
    19  C    6.206450   4.920673   4.851480   6.174624   7.259358
    20  C    5.280091   3.952687   3.615088   4.851480   6.006456
    21  C    5.699037   4.483355   3.952687   4.920673   6.079444
    22  C    6.850193   5.699037   5.280091   6.206450   7.307260
    23  H    7.217397   6.035715   6.266728   7.677933   8.647183
    24  H    8.562749   7.427208   7.226242   8.276597   9.333921
    25  H    8.098742   6.899667   6.939140   8.239810   9.284097
    26  C    6.308845   5.068646   5.206439   6.607906   7.612624
    27  C    4.366175   2.989462   2.560062   3.867441   5.030219
    28  H    5.344106   4.217097   3.457156   4.175259   5.346912
    29  H    7.372147   6.314738   5.813523   6.551269   7.608155
    30  C    4.529006   3.247034   3.215070   4.564158   5.561593
    31  C    5.564863   4.358122   4.545579   5.935108   6.878289
    32  H    6.015896   4.937141   5.260100   6.614575   7.457277
    33  O    6.094766   4.873240   3.673407   4.180473   5.600968
    34  H    6.780950   5.636978   4.341184   4.582119   5.982326
    35  O    4.198096   3.118425   3.117730   4.271088   5.119435
    36  H    4.756520   3.815306   4.017667   5.146987   5.879565
                    6          7          8          9         10
     6  C    0.000000
     7  H    2.168573   0.000000
     8  H    3.408517   2.451487   0.000000
     9  C    4.278080   4.639374   2.732066   0.000000
    10  C    3.730565   5.308396   4.617086   2.840379   0.000000
    11  H    2.143628   4.299518   4.969523   4.644335   2.685012
    12  H    1.086569   2.495553   4.297684   5.364619   4.611767
    13  C    4.857091   6.116898   4.881754   2.451481   1.371889
    14  C    5.071866   5.834259   4.106634   1.390394   2.419814
    15  H    4.066362   5.918793   5.559736   3.927551   1.087235
    16  H    5.828215   7.188438   5.953246   3.424132   2.140971
    17  C    8.509727   7.977754   5.844891   5.236268   7.496288
    18  C    8.364967   7.608155   5.346911   5.030219   7.612624
    19  C    7.282405   6.551269   4.175259   3.867441   6.607906
    20  C    6.191226   5.813523   3.457156   2.560062   5.206439
    21  C    6.414297   6.314738   4.217097   2.989462   5.068646
    22  C    7.594052   7.372147   5.344106   4.366175   6.308845
    23  H    8.459300   7.329902   5.085929   5.420665   8.260704
    24  H    9.469500   8.907548   6.851731   6.294886   8.454036
    25  H    9.232636   8.302024   6.073067   5.984940   8.639890
    26  C    7.496288   6.526161   4.181185   4.333516   7.173485
    27  C    5.236268   4.991884   2.623253   1.494111   4.333516
    28  H    5.844891   6.087276   4.219958   2.623253   4.181185
    29  H    7.977754   7.931745   6.087276   4.991884   6.526161
    30  C    5.556260   4.968912   2.638333   2.495921   5.194993
    31  C    6.733333   5.799220   3.513025   3.812774   6.583683
    32  H    7.212054   6.132242   4.076627   4.663230   7.322679
    33  O    6.412098   7.002080   5.014224   2.368509   3.664901
    34  H    6.938040   7.740863   5.880987   3.172324   3.776830
    35  O    5.097190   4.659838   2.772212   2.783146   4.967453
    36  H    5.722634   5.047819   3.342102   3.745938   5.884151
                   11         12         13         14         15
    11  H    0.000000
    12  H    2.478831   0.000000
    13  C    4.051831   5.824336   0.000000
    14  C    4.850640   6.133031   1.417088   0.000000
    15  H    2.449316   4.764113   2.136540   3.408749   0.000000
    16  H    4.753593   6.745225   1.089065   2.167508   2.471199
    17  C    9.232636   9.469500   6.733333   5.556260   8.459300
    18  C    9.284097   9.333921   6.878289   5.561593   8.647183
    19  C    8.239810   8.276597   5.935108   4.564158   7.677933
    20  C    6.939141   7.226242   4.545579   3.215070   6.266728
    21  C    6.899667   7.427208   4.358122   3.247034   6.035715
    22  C    8.098742   8.562749   5.564863   4.529006   7.217397
    23  H    9.686800   9.382504   7.656243   6.259370   9.347926
    24  H   10.177609  10.402609   7.676481   6.551092   9.382504
    25  H   10.260972  10.177609   7.905963   6.560653   9.686800
    26  C    8.639890   8.454036   6.583683   5.194993   8.260704
    27  C    5.984940   6.294886   3.812774   2.495921   5.420665
    28  H    6.073067   6.851731   3.513025   2.638333   5.085929
    29  H    8.302024   8.907548   5.799220   4.968912   7.329902
    30  C    6.560653   6.551092   4.798773   3.554880   6.259370
    31  C    7.905963   7.676481   6.118446   4.798773   7.656243
    32  H    8.483111   8.090140   6.925988   5.660895   8.369539
    33  O    6.198497   7.482038   2.414071   1.369338   4.547517
    34  H    6.435381   7.979259   2.411614   1.915690   4.485811
    35  O    6.068933   6.032660   4.780665   3.793696   5.947792
    36  H    6.825208   6.577613   5.719975   4.737046   6.834495
                   16         17         18         19         20
    16  H    0.000000
    17  C    7.212054   0.000000
    18  C    7.457277   1.375038   0.000000
    19  C    6.614575   2.433730   1.420618   0.000000
    20  C    5.260100   2.842493   2.470212   1.435475   0.000000
    21  C    4.937141   2.428038   2.798151   2.444204   1.423295
    22  C    6.015896   1.415154   2.410401   2.804432   2.441244
    23  H    8.369539   4.066362   2.696269   2.166412   3.442654
    24  H    8.090140   1.086569   2.141476   3.421294   3.928980
    25  H    8.483111   2.143629   1.087872   2.161502   3.446474
    26  C    7.322679   3.730565   2.472872   1.417808   2.459128
    27  C    4.663230   4.278080   3.781387   2.485613   1.435796
    28  H    4.076627   3.408517   3.881755   3.427602   2.165890
    29  H    6.132242   2.168573   3.391031   3.891401   3.422336
    30  C    5.660895   5.071866   4.231660   2.811227   2.425988
    31  C    6.925988   4.857091   3.725258   2.424050   2.815445
    32  H    7.736924   5.828215   4.611007   3.415523   3.904292
    33  O    2.644227   5.097190   5.119435   4.271088   3.117730
    34  H    2.216935   5.722634   5.879565   5.146987   4.017667
    35  O    5.665062   6.412098   5.600968   4.180473   3.673407
    36  H    6.578140   6.938040   5.982326   4.582119   4.341184
                   21         22         23         24         25
    21  C    0.000000
    22  C    1.376716   0.000000
    23  H    4.607565   4.849421   0.000000
    24  H    3.406892   2.173187   4.764113   0.000000
    25  H    3.885936   3.404796   2.449315   2.478832   0.000000
    26  C    3.740491   4.221639   1.087235   4.611767   2.685011
    27  C    2.507261   3.764671   3.927551   5.364619   4.644335
    28  H    1.083817   2.133352   5.559736   4.297684   4.969523
    29  H    2.134272   1.087062   5.918793   2.495553   4.299519
    30  C    3.748018   4.865795   3.408749   6.133031   4.850640
    31  C    4.236322   5.054960   2.136540   5.824336   4.051830
    32  H    5.325218   6.119289   2.471199   6.745225   4.753592
    33  O    3.118425   4.198096   5.947792   6.032660   6.068933
    34  H    3.815306   4.756520   6.834495   6.577613   6.825208
    35  O    4.873240   6.094766   4.547517   7.482038   6.198496
    36  H    5.636978   6.780950   4.485811   7.979259   6.435380
                   26         27         28         29         30
    26  C    0.000000
    27  C    2.840379   0.000000
    28  H    4.617086   2.732066   0.000000
    29  H    5.308396   4.639374   2.451487   0.000000
    30  C    2.419814   1.390394   4.106634   5.834259   0.000000
    31  C    1.371889   2.451481   4.881754   6.116898   1.417088
    32  H    2.140971   3.424132   5.953246   7.188438   2.167508
    33  O    4.967453   2.783146   2.772212   4.659838   3.793696
    34  H    5.884151   3.745938   3.342102   5.047819   4.737046
    35  O    3.664901   2.368509   5.014224   7.002080   1.369338
    36  H    3.776830   3.172324   5.880987   7.740863   1.915690
                   31         32         33         34         35
    31  C    0.000000
    32  H    1.089065   0.000000
    33  O    4.780665   5.665062   0.000000
    34  H    5.719975   6.578140   0.969380   0.000000
    35  O    2.414071   2.644227   4.268461   5.114566   0.000000
    36  H    2.411614   2.216935   5.114566   5.951785   0.969380
                   36
    36  H    0.000000
 Stoichiometry    C20H14O2
 Framework group  C2[X(C20H14O2)]
 Deg. of freedom    52
 Full point group                 C2      NOp   2
 Largest Abelian subgroup         C2      NOp   2
 Largest concise Abelian subgroup C2      NOp   2
                         Standard orientation:                         
 ---------------------------------------------------------------------
 Center     Atomic      Atomic             Coordinates (Angstroms)
 Number     Number       Type             X           Y           Z
 ---------------------------------------------------------------------
      1          6           0       -2.376661    2.466327   -1.572161
      2          6           0       -1.696316    1.465479   -0.915822
      3          6           0       -0.504539    1.735701   -0.186153
      4          6           0       -0.020890    3.087242   -0.183044
      5          6           0       -0.752002    4.098909   -0.861395
      6          6           0       -1.910145    3.802001   -1.540570
      7          1           0       -3.281514    2.227063   -2.125059
      8          1           0       -2.062227    0.446354   -0.962217
      9          6           0        0.224841    0.712417    0.508401
     10          6           0        1.196766    3.381194    0.481099
     11          1           0       -0.369716    5.117147   -0.838708
     12          1           0       -2.460224    4.582670   -2.058836
     13          6           0        1.910145    2.389601    1.105530
     14          6           0        1.429294    1.056604    1.111744
     15          1           0        1.564743    4.404260    0.483717
     16          1           0        2.848351    2.617613    1.609358
     17          6           0        1.910145   -3.802001   -1.540570
     18          6           0        0.752002   -4.098909   -0.861395
     19          6           0        0.020890   -3.087242   -0.183044
     20          6           0        0.504539   -1.735701   -0.186153
     21          6           0        1.696316   -1.465479   -0.915822
     22          6           0        2.376661   -2.466327   -1.572161
     23          1           0       -1.564743   -4.404260    0.483717
     24          1           0        2.460224   -4.582670   -2.058836
     25          1           0        0.369716   -5.117147   -0.838708
     26          6           0       -1.196766   -3.381194    0.481099
     27          6           0       -0.224841   -0.712417    0.508401
     28          1           0        2.062227   -0.446354   -0.962217
     29          1           0        3.281514   -2.227063   -2.125059
     30          6           0       -1.429294   -1.056604    1.111744
     31          6           0       -1.910145   -2.389601    1.105530
     32          1           0       -2.848351   -2.617613    1.609358
     33          8           0        2.132861    0.076449    1.759335
     34          1           0        2.939352    0.464919    2.131305
     35          8           0       -2.132861   -0.076449    1.759335
     36          1           0       -2.939352   -0.464919    2.131305
 ---------------------------------------------------------------------
 Rotational constants (GHZ):           0.4917253           0.2232066           0.1967054
 Standard basis: 6-31G(d) (6D, 7F)
 There are   179 symmetry adapted cartesian basis functions of A   symmetry.
 There are   179 symmetry adapted cartesian basis functions of B   symmetry.
 There are   179 symmetry adapted basis functions of A   symmetry.
 There are   179 symmetry adapted basis functions of B   symmetry.
   358 basis functions,   672 primitive gaussians,   358 cartesian basis functions
    75 alpha electrons       75 beta electrons
       nuclear repulsion energy      1673.8177082560 Hartrees.
 NAtoms=   36 NActive=   36 NUniq=   18 SFac= 4.00D+00 NAtFMM=   60 NAOKFM=F Big=F
 Integral buffers will be    131072 words long.
 Regular integral format.
 Two-electron integral symmetry is turned on.
 One-electron integrals computed using PRISM.
 NBasis=   358 RedAO= T EigKep=  2.34D-04  NBF=   179   179
 NBsUse=   358 1.00D-06 EigRej= -1.00D+00 NBFU=   179   179
 ExpMin= 1.61D-01 ExpMax= 5.48D+03 ExpMxC= 8.25D+02 IAcc=3 IRadAn=         5 AccDes= 0.00D+00
 Harris functional with IExCor=  402 and IRadAn=       5 diagonalized for initial guess.
 HarFok:  IExCor=  402 AccDes= 0.00D+00 IRadAn=         5 IDoV= 1 UseB2=F ITyADJ=14
 ICtDFT=  3500011 ScaDFX=  1.000000  1.000000  1.000000  1.000000
 FoFCou: FMM=F IPFlag=           0 FMFlag=      100000 FMFlg1=           0
         NFxFlg=           0 DoJE=T BraDBF=F KetDBF=T FulRan=T
         wScrn=  0.000000 ICntrl=       500 IOpCl=  0 I1Cent=   200000004 NGrid=           0
         NMat0=    1 NMatS0=      1 NMatT0=    0 NMatD0=    1 NMtDS0=    0 NMtDT0=    0
 Petite list used in FoFCou.
 Initial guess orbital symmetries:
       Occupied  (B) (A) (A) (B) (B) (A) (B) (A) (A) (B) (B) (A)
                 (B) (A) (B) (A) (A) (B) (A) (B) (A) (B) (A) (B)
                 (A) (B) (A) (B) (A) (B) (A) (B) (A) (B) (A) (B)
                 (B) (A) (A) (B) (B) (A) (A) (B) (A) (B) (A) (B)
                 (A) (B) (A) (B) (B) (A) (A) (B) (A) (A) (B) (B)
                 (A) (B) (A) (A) (B) (B) (A) (B) (A) (A) (B) (A)
                 (B) (A) (B)
       Virtual   (A) (B) (A) (B) (A) (B) (A) (B) (B) (A) (B) (A)
                 (B) (A) (A) (B) (B) (A) (B) (A) (B) (A) (A) (B)
                 (B) (B) (A) (A) (B) (A) (B) (B) (A) (B) (A) (A)
                 (B) (B) (A) (A) (B) (A) (B) (B) (A) (B) (A) (A)
                 (B) (A) (B) (A) (A) (B) (B) (A) (B) (B) (A) (A)
                 (A) (B) (B) (A) (A) (B) (B) (A) (A) (A) (B) (B)
                 (A) (B) (A) (B) (B) (A) (B) (A) (A) (B) (B) (A)
                 (B) (B) (A) (A) (B) (A) (B) (A) (B) (A) (B) (A)
                 (B) (B) (A) (B) (A) (B) (A) (A) (B) (B) (A) (A)
                 (B) (B) (A) (A) (B) (A) (B) (A) (B) (A) (B) (B)
                 (A) (B) (A) (A) (B) (A) (B) (A) (A) (B) (A) (B)
                 (B) (B) (A) (A) (B) (A) (B) (A) (B) (B) (A) (A)
                 (B) (A) (B) (A) (B) (A) (B) (A) (B) (A) (B) (A)
                 (B) (B) (A) (B) (A) (A) (B) (A) (B) (A) (B) (A)
                 (A) (B) (B) (A) (B) (A) (A) (B) (B) (A) (B) (A)
                 (A) (B) (B) (A) (B) (A) (B) (A) (A) (B) (A) (B)
                 (A) (B) (B) (A) (B) (A) (B) (A) (B) (A) (A) (B)
                 (B) (A) (A) (B) (A) (B) (A) (B) (A) (A) (B) (B)
                 (B) (A) (B) (A) (B) (A) (A) (B) (A) (B) (A) (A)
                 (B) (B) (B) (A) (B) (A) (B) (A) (B) (A) (B) (A)
                 (A) (B) (B) (A) (B) (A) (B) (A) (B) (B) (A) (A)
                 (B) (A) (B) (B) (A) (A) (B) (A) (B) (A) (B) (A)
                 (B) (A) (B) (A) (B) (B) (A) (A) (A) (B) (B) (A)
                 (B) (A) (B) (A) (B) (A) (B)
 The electronic state of the initial guess is 1-A.
 Requested convergence on RMS density matrix=1.00D-08 within 128 cycles.
 Requested convergence on MAX density matrix=1.00D-06.
 Requested convergence on             energy=1.00D-06.
 No special actions if energy rises.
 Integral accuracy reduced to 1.0D-05 until final iterations.
 Initial convergence to 1.0D-05 achieved.  Increase integral accuracy.
 SCF Done:  E(RB3LYP) =  -921.013633482     A.U. after   14 cycles
            NFock= 14  Conv=0.61D-08     -V/T= 2.0095
 DoSCS=F DFT=T ScalE2(SS,OS)=  1.000000  1.000000
 ExpMin= 1.61D-01 ExpMax= 5.48D+03 ExpMxC= 8.25D+02 IAcc=3 IRadAn=         5 AccDes= 0.00D+00
 HarFok:  IExCor=  205 AccDes= 0.00D+00 IRadAn=         5 IDoV=-2 UseB2=F ITyADJ=14
 ICtDFT= 12500011 ScaDFX=  1.000000  1.000000  1.000000  1.000000
 GSVD:  LWork=        -660 too small for GESVD, short by        2750 words or        2750 for optimal perf.
 Range of M.O.s used for correlation:    23   358
 NBasis=   358 NAE=    75 NBE=    75 NFC=    22 NFV=     0
 NROrb=    336 NOA=    53 NOB=    53 NVA=   283 NVB=   283
 Orbital symmetries:
       Occupied  (B) (A) (B) (A) (A) (B) (A) (B) (A) (B) (A) (B)
                 (A) (B) (B) (A) (A) (B) (B) (A) (B) (A) (A) (B)
                 (A) (B) (A) (B) (A) (B) (B) (A) (A) (B) (A) (B)
                 (A) (B) (A) (B) (A) (B) (A) (B) (A) (B) (A) (B)
                 (A) (B) (A) (B) (A) (B) (A) (B) (A) (B) (A) (A)
                 (B) (B) (A) (B) (A) (B) (A) (B) (A) (A) (B) (A)
                 (B) (A) (B)
       Virtual   (A) (B) (A) (B) (A) (B) (B) (A) (B) (A) (A) (B)
                 (B) (A) (B) (A) (B) (A) (B) (A) (B) (A) (A) (B)
                 (B) (A) (B) (A) (B) (A) (B) (B) (A) (B) (A) (A)
                 (B) (A) (B) (A) (B) (A) (B) (A) (B) (A) (B) (B)
                 (A) (A) (B) (A) (B) (A) (A) (B) (B) (B) (A) (A)
                 (B) (A) (B) (A) (B) (A) (A) (B) (A) (B) (A) (A)
                 (B) (B) (A) (A) (B) (B) (B) (A) (A) (B) (B) (A)
                 (B) (B) (A) (B) (A) (A) (B) (A) (B) (A) (B) (A)
                 (B) (B) (A) (A) (B) (B) (A) (A) (B) (B) (A) (A)
                 (B) (B) (A) (A) (B) (B) (A) (A) (B) (A) (B) (B)
                 (A) (B) (A) (A) (B) (A) (B) (A) (B) (A) (B) (A)
                 (B) (A) (B) (B) (A) (A) (B) (A) (B) (A) (B) (A)
                 (B) (A) (B) (A) (B) (A) (B) (A) (B) (B) (A) (B)
                 (A) (B) (A) (B) (A) (A) (B) (A) (A) (B) (A) (A)
                 (B) (B) (A) (B) (B) (A) (A) (B) (B) (A) (B) (A)
                 (B) (A) (A) (B) (B) (A) (A) (B) (A) (B) (A) (B)
                 (A) (B) (B) (A) (B) (A) (B) (A) (A) (B) (A) (B)
                 (B) (A) (A) (B) (A) (B) (A) (B) (A) (A) (B) (B)
                 (B) (A) (B) (A) (B) (A) (B) (A) (A) (B) (A) (B)
                 (A) (B) (B) (A) (B) (A) (B) (A) (A) (B) (B) (A)
                 (A) (B) (B) (A) (B) (A) (B) (B) (A) (B) (A) (A)
                 (B) (A) (B) (B) (A) (A) (B) (A) (B) (A) (B) (B)
                 (A) (A) (B) (A) (B) (B) (A) (A) (A) (B) (B) (A)
                 (B) (A) (B) (A) (B) (A) (B)
    64 initial guesses have been made.
 Convergence on wavefunction:    0.001000000000000
 Iteration     1 Dimension    64 NMult     0 NNew     64
 CISAX will form    64 AO SS matrices at one time.
 New state      3 was old state      6
 New state      6 was old state      9
 New state      7 was old state      8
 New state      8 was old state      7
 New state      9 was old state     11
 New state     11 was old state     13
 New state     12 was old state     19
 New state     13 was old state     14
 New state     14 was old state     15
 New state     15 was old state     16
 New state     16 was old state     21
 Iteration     2 Dimension    96 NMult    64 NNew     32
 New state     12 was old state     13
 New state     13 was old state     12
 New state     14 was old state     15
 New state     15 was old state     14
 Iteration     3 Dimension   128 NMult    96 NNew     32
 Iteration     4 Dimension   160 NMult   128 NNew     32
 New state     14 was old state     15
 New state     15 was old state     14
 Iteration     5 Dimension   178 NMult   160 NNew     18
 Iteration     6 Dimension   184 NMult   178 NNew      6
 ***********************************************************************
 Excited states from <AA,BB:AA,BB> singles matrix:
 ***********************************************************************
 
 Ground to excited state transition densities written to RWF  633
 Ground to excited state transition electric dipole moments (Au):
       state          X           Y           Z        Dip. S.      Osc.
         1         0.2923      1.2623     -0.0000      1.6788      0.1509
         2         0.0000      0.0000      0.0740      0.0055      0.0005
         3        -0.0000      0.0000     -0.2803      0.0786      0.0079
         4        -0.3431     -0.3377     -0.0000      0.2318      0.0242
         5        -0.0729     -0.6888      0.0000      0.4798      0.0523
         6         0.0000      0.0000      0.0236      0.0006      0.0001
         7         0.0000     -0.0000      0.2865      0.0821      0.0096
         8         0.5521     -0.1255     -0.0000      0.3205      0.0379
         9         0.0000     -0.0000     -0.1468      0.0216      0.0026
        10        -0.2579      0.2479     -0.0000      0.1280      0.0155
        11        -0.2342      0.2192     -0.0000      0.1029      0.0133
        12        -0.2283      0.9855      0.0000      1.0233      0.1378
        13         0.0000     -0.0000      0.7757      0.6018      0.0821
        14        -0.8944      0.3428     -0.0000      0.9175      0.1291
        15        -0.0000      0.0000      0.2741      0.0751      0.0106
        16         0.0000     -0.0000      0.5091      0.2592      0.0367
 Ground to excited state transition velocity dipole moments (Au):
       state          X           Y           Z        Dip. S.      Osc.
         1        -0.0385     -0.1820     -0.0000      0.0346      0.1711
         2        -0.0000     -0.0000     -0.0147      0.0002      0.0010
         3         0.0000     -0.0000      0.0361      0.0013      0.0058
         4         0.0501      0.0646      0.0000      0.0067      0.0284
         5         0.0140      0.1222     -0.0000      0.0151      0.0617
         6        -0.0000     -0.0000     -0.0012      0.0000      0.0000
         7        -0.0000     -0.0000     -0.0538      0.0029      0.0110
         8        -0.0973      0.0141     -0.0000      0.0097      0.0363
         9        -0.0000      0.0000      0.0283      0.0008      0.0030
        10         0.0378     -0.0431      0.0000      0.0033      0.0120
        11         0.0364     -0.0385      0.0000      0.0028      0.0096
        12         0.0498     -0.1988     -0.0000      0.0420      0.1387
        13        -0.0000      0.0000     -0.1535      0.0236      0.0767
        14         0.1850     -0.0694      0.0000      0.0390      0.1233
        15        -0.0000     -0.0000     -0.0575      0.0033      0.0105
        16        -0.0000      0.0000     -0.1131      0.0128      0.0402
 Ground to excited state transition magnetic dipole moments (Au):
       state          X           Y           Z
         1         0.0493     -0.0980     -0.0000
         2         0.0000     -0.0000      0.2937
         3        -0.0000      0.0000     -0.8304
         4         0.3417     -0.1442     -0.0000
         5        -0.1085     -0.0297      0.0000
         6         0.0000      0.0000      0.0072
         7        -0.0000      0.0000      0.6220
         8        -0.4223      0.0474     -0.0000
         9        -0.0000      0.0000     -0.3765
        10         0.1432     -0.0633     -0.0000
        11         0.3583     -0.0066     -0.0000
        12         0.8359     -0.2158      0.0000
        13        -0.0000      0.0000      1.3653
        14         0.6264     -0.0068     -0.0000
        15         0.0000     -0.0000      0.4015
        16        -0.0000      0.0000      0.6098
 Ground to excited state transition velocity quadrupole moments (Au):
       state          XX          YY          ZZ          XY          XZ          YZ
         1         0.0000      0.0000      0.0000     -0.0000     -0.2323      0.0737
         2        -0.0295     -0.0353      0.0039     -0.0614      0.0000      0.0000
         3        -0.0408      0.9253     -0.0088      0.3824      0.0000     -0.0000
         4         0.0000      0.0000      0.0000      0.0000      0.0094      0.0662
         5        -0.0000      0.0000      0.0000     -0.0000      0.0530     -0.1336
         6        -0.0949      0.6600     -0.0118     -0.0097     -0.0000      0.0000
         7         0.0046      0.0953     -0.0082     -0.2450      0.0000      0.0000
         8         0.0000      0.0000     -0.0000      0.0000      0.0168     -0.2356
         9         0.0147     -0.1325     -0.0046      0.1442     -0.0000     -0.0000
        10         0.0000     -0.0000     -0.0000      0.0000     -0.0069      0.2307
        11         0.0000     -0.0000     -0.0000      0.0000     -0.0509      0.1295
        12         0.0000      0.0000      0.0000     -0.0000     -0.4998      0.1735
        13         0.0692      0.9232      0.0351     -0.8909      0.0000     -0.0000
        14        -0.0000      0.0000     -0.0000      0.0000     -0.1044      0.6284
        15         0.0052      0.7295      0.0377     -0.2199     -0.0000      0.0000
        16        -0.0177      0.5588     -0.0938     -0.6530      0.0000     -0.0000
 <0|del|b> * <b|rxdel|0> + <0|del|b> * <b|delr+rdel|0>
 Rotatory Strengths (R) in cgs (10**-40 erg-esu-cm/Gauss)
       state          XX          YY          ZZ    R(velocity)    E-M Angle
         1       -64.0882    -12.4258    160.1218     27.8693       38.67
         2        -8.4986    -12.9900      0.0000     -7.1629       90.00
         3       -37.9450   -102.7192      0.0000    -46.8881       90.00
         4       -22.3993     46.1337     11.4928     11.7424       75.09
         5       -21.8558     -7.3306      6.9108     -7.4252      111.84
         6         0.0068     -0.0448      0.0000     -0.0127       90.00
         7       -40.7520    -93.7174      0.0000    -44.8231       90.00
         8         0.8586    127.5981     38.0097     55.4888        1.83
         9       -12.8933    -28.9013     -0.0000    -13.9315       90.00
        10         4.7234     27.4576     -0.5467     10.5447       24.92
        11        -3.1034     32.3591     19.2098     16.1552       45.52
        12       -98.8880     88.0220    306.8626     98.6655       61.46
        13      -125.7549   -598.0955      0.0000   -241.2834       90.00
        14       -11.3360    388.8551     12.2844    129.9345       19.93
        15       -17.4896    -59.8709      0.0000    -25.7869       90.00
        16         8.1385   -237.8699     -0.0000    -76.5771       90.00
 1/2[<0|r|b>*<b|rxdel|0> + (<0|rxdel|b>*<b|r|0>)*]
 Rotatory Strengths (R) in cgs (10**-40 erg-esu-cm/Gauss)
       state          XX          YY          ZZ     R(length)
         1       -10.2016     87.4999     -0.0000     25.7661
         2        -0.0000      0.0000    -15.3809     -5.1270
         3        -0.0000     -0.0000   -164.6117    -54.8706
         4        82.9194    -34.4270     -0.0000     16.1641
         5        -5.5955    -14.4678     -0.0000     -6.6878
         6        -0.0000     -0.0000     -0.1197     -0.0399
         7         0.0000      0.0000   -126.0331    -42.0110
         8       164.8559      4.2045     -0.0000     56.3535
         9         0.0000      0.0000    -39.0938    -13.0313
        10        26.1233     11.0949     -0.0000     12.4061
        11        59.3486      1.0306     -0.0000     20.1264
        12       134.9607    150.3650     -0.0000     95.1085
        13         0.0000      0.0000   -748.9552   -249.6517
        14       396.1840      1.6500     -0.0000    132.6113
        15         0.0000      0.0000    -77.8119    -25.9373
        16         0.0000      0.0000   -219.5407    -73.1802
  1/2[<0|del|b>*<b|r|0> + (<0|r|b>*<b|del|0>)*] (Au)
       state          X           Y           Z        Dip. S.   Osc.(frdel)
         1        -0.0113     -0.2297      0.0000      0.2410      0.1606
         2        -0.0000     -0.0000     -0.0011      0.0011      0.0007
         3        -0.0000     -0.0000     -0.0101      0.0101      0.0068
         4        -0.0172     -0.0218     -0.0000      0.0390      0.0260
         5        -0.0010     -0.0842     -0.0000      0.0852      0.0568
         6        -0.0000     -0.0000     -0.0000      0.0000      0.0000
         7        -0.0000      0.0000     -0.0154      0.0154      0.0103
         8        -0.0537     -0.0018      0.0000      0.0555      0.0370
         9        -0.0000     -0.0000     -0.0042      0.0042      0.0028
        10        -0.0098     -0.0107     -0.0000      0.0204      0.0136
        11        -0.0085     -0.0084     -0.0000      0.0170      0.0113
        12        -0.0114     -0.1959     -0.0000      0.2073      0.1382
        13        -0.0000     -0.0000     -0.1191      0.1191      0.0794
        14        -0.1655     -0.0238     -0.0000      0.1893      0.1262
        15         0.0000     -0.0000     -0.0158      0.0158      0.0105
        16        -0.0000     -0.0000     -0.0576      0.0576      0.0384

 Excitation energies and oscillator strengths:
 
 Excited State   1:      Singlet-B      3.6686 eV  337.96 nm  f=0.1509  <S**2>=0.000
      75 -> 76         0.69258
 This state for optimization and/or second-order correction.
 Total Energy, E(TD-HF/TD-DFT) =  -920.878816255    
 Copying the excited state density for this state as the 1-particle RhoCI density.
 
 Excited State   2:      Singlet-A      3.8736 eV  320.08 nm  f=0.0005  <S**2>=0.000
      74 -> 76         0.55188
      75 -> 77         0.43515
 
 Excited State   3:      Singlet-A      4.1056 eV  301.99 nm  f=0.0079  <S**2>=0.000
      72 -> 76        -0.13693
      72 -> 78        -0.11537
      73 -> 79        -0.10295
      74 -> 76        -0.38726
      75 -> 77         0.52151
      75 -> 79         0.13577
 
 Excited State   4:      Singlet-B      4.2589 eV  291.12 nm  f=0.0242  <S**2>=0.000
      72 -> 77         0.12459
      73 -> 76        -0.25976
      74 -> 77         0.53504
      74 -> 79         0.11932
      75 -> 78         0.31164
 
 Excited State   5:      Singlet-B      4.4471 eV  278.79 nm  f=0.0523  <S**2>=0.000
      73 -> 76         0.48214
      74 -> 77         0.41243
      75 -> 78        -0.26363
 
 Excited State   6:      Singlet-A      4.4617 eV  277.89 nm  f=0.0001  <S**2>=0.000
      72 -> 76         0.50614
      73 -> 77        -0.14761
      74 -> 76        -0.16885
      74 -> 78        -0.19802
      75 -> 77         0.14567
      75 -> 79        -0.35817
 
 Excited State   7:      Singlet-A      4.7932 eV  258.67 nm  f=0.0096  <S**2>=0.000
      72 -> 76         0.38635
      73 -> 77         0.49785
      75 -> 79         0.30863
 
 Excited State   8:      Singlet-B      4.8244 eV  257.00 nm  f=0.0379  <S**2>=0.000
      72 -> 77         0.44283
      73 -> 76         0.35534
      74 -> 77        -0.11439
      74 -> 79        -0.12462
      75 -> 78         0.37743
 
 Excited State   9:      Singlet-A      4.9091 eV  252.56 nm  f=0.0026  <S**2>=0.000
      73 -> 77         0.24617
      74 -> 78         0.52892
      75 -> 79        -0.39164
 
 Excited State  10:      Singlet-B      4.9540 eV  250.27 nm  f=0.0155  <S**2>=0.000
      72 -> 77         0.37609
      74 -> 79         0.50699
      75 -> 78        -0.30065
 
 Excited State  11:      Singlet-B      5.2825 eV  234.71 nm  f=0.0133  <S**2>=0.000
      71 -> 76         0.53430
      75 -> 80         0.43249
 
 Excited State  12:      Singlet-B      5.4957 eV  225.60 nm  f=0.1378  <S**2>=0.000
      71 -> 76        -0.42886
      74 -> 79        -0.11848
      75 -> 80         0.51235
 
 Excited State  13:      Singlet-A      5.5711 eV  222.55 nm  f=0.0821  <S**2>=0.000
      70 -> 76         0.28214
      71 -> 77         0.36179
      72 -> 76         0.11472
      73 -> 77        -0.20783
      74 -> 78         0.19785
      74 -> 80        -0.27520
      75 -> 79         0.12452
      75 -> 81        -0.29806
 
 Excited State  14:      Singlet-B      5.7446 eV  215.83 nm  f=0.1291  <S**2>=0.000
      72 -> 77         0.13247
      72 -> 79        -0.40928
      73 -> 78         0.51292
      74 -> 79        -0.14755
      75 -> 78        -0.11370
 
 Excited State  15:      Singlet-A      5.7448 eV  215.82 nm  f=0.0106  <S**2>=0.000
      71 -> 77        -0.16406
      72 -> 78         0.54271
      73 -> 79        -0.23243
      74 -> 78         0.10378
      74 -> 80        -0.23490
      75 -> 81         0.19765
 
 Excited State  16:      Singlet-A      5.7772 eV  214.61 nm  f=0.0367  <S**2>=0.000
      71 -> 77        -0.14483
      72 -> 78         0.12479
      73 -> 77        -0.10641
      73 -> 79        -0.28300
      74 -> 80         0.49636
      75 -> 81        -0.28932
 SavETr:  write IOETrn=   770 NScale= 10 NData=  16 NLR=1 NState=   16 LETran=     298.

 **********************************************************************

            Population analysis using the SCF Density.

 **********************************************************************

 Orbital symmetries:
       Occupied  (B) (A) (B) (A) (A) (B) (A) (B) (A) (B) (A) (B)
                 (A) (B) (B) (A) (A) (B) (B) (A) (B) (A) (A) (B)
                 (A) (B) (A) (B) (A) (B) (B) (A) (A) (B) (A) (B)
                 (A) (B) (A) (B) (A) (B) (A) (B) (A) (B) (A) (B)
                 (A) (B) (A) (B) (A) (B) (A) (B) (A) (B) (A) (A)
                 (B) (B) (A) (B) (A) (B) (A) (B) (A) (A) (B) (A)
                 (B) (A) (B)
       Virtual   (A) (B) (A) (B) (A) (B) (B) (A) (B) (A) (A) (B)
                 (B) (A) (B) (A) (B) (A) (B) (A) (B) (A) (A) (B)
                 (B) (A) (B) (A) (B) (A) (B) (B) (A) (B) (A) (A)
                 (B) (A) (B) (A) (B) (A) (B) (A) (B) (A) (B) (B)
                 (A) (A) (B) (A) (B) (A) (A) (B) (B) (B) (A) (A)
                 (B) (A) (B) (A) (B) (A) (A) (B) (A) (B) (A) (A)
                 (B) (B) (A) (A) (B) (B) (B) (A) (A) (B) (B) (A)
                 (B) (B) (A) (B) (A) (A) (B) (A) (B) (A) (B) (A)
                 (B) (B) (A) (A) (B) (B) (A) (A) (B) (B) (A) (A)
                 (B) (B) (A) (A) (B) (B) (A) (A) (B) (A) (B) (B)
                 (A) (B) (A) (A) (B) (A) (B) (A) (B) (A) (B) (A)
                 (B) (A) (B) (B) (A) (A) (B) (A) (B) (A) (B) (A)
                 (B) (A) (B) (A) (B) (A) (B) (A) (B) (B) (A) (B)
                 (A) (B) (A) (B) (A) (A) (B) (A) (A) (B) (A) (A)
                 (B) (B) (A) (B) (B) (A) (A) (B) (B) (A) (B) (A)
                 (B) (A) (A) (B) (B) (A) (A) (B) (A) (B) (A) (B)
                 (A) (B) (B) (A) (B) (A) (B) (A) (A) (B) (A) (B)
                 (B) (A) (A) (B) (A) (B) (A) (B) (A) (A) (B) (B)
                 (B) (A) (B) (A) (B) (A) (B) (A) (A) (B) (A) (B)
                 (A) (B) (B) (A) (B) (A) (B) (A) (A) (B) (B) (A)
                 (A) (B) (B) (A) (B) (A) (B) (B) (A) (B) (A) (A)
                 (B) (A) (B) (B) (A) (A) (B) (A) (B) (A) (B) (B)
                 (A) (A) (B) (A) (B) (B) (A) (A) (A) (B) (B) (A)
                 (B) (A) (B) (A) (B) (A) (B)
 The electronic state is 1-A.
 Alpha  occ. eigenvalues --  -19.17512 -19.17512 -10.24625 -10.24624 -10.19265
 Alpha  occ. eigenvalues --  -10.19265 -10.19148 -10.19148 -10.19082 -10.19082
 Alpha  occ. eigenvalues --  -10.18897 -10.18869 -10.18791 -10.18791 -10.18230
 Alpha  occ. eigenvalues --  -10.18230 -10.18088 -10.18088 -10.17977 -10.17977
 Alpha  occ. eigenvalues --  -10.17634 -10.17634  -1.05698  -1.05571  -0.86942
 Alpha  occ. eigenvalues --   -0.85901  -0.81369  -0.80840  -0.78633  -0.75061
 Alpha  occ. eigenvalues --   -0.72935  -0.72929  -0.71894  -0.70334  -0.62962
 Alpha  occ. eigenvalues --   -0.62452  -0.61145  -0.61027  -0.59733  -0.56713
 Alpha  occ. eigenvalues --   -0.54597  -0.54438  -0.51548  -0.50071  -0.49068
 Alpha  occ. eigenvalues --   -0.48764  -0.46376  -0.46280  -0.44190  -0.43068
 Alpha  occ. eigenvalues --   -0.42293  -0.42292  -0.41558  -0.41476  -0.41346
 Alpha  occ. eigenvalues --   -0.39750  -0.39306  -0.39297  -0.38711  -0.36615
 Alpha  occ. eigenvalues --   -0.36087  -0.35717  -0.35151  -0.34152  -0.33884
 Alpha  occ. eigenvalues --   -0.33183  -0.31302  -0.30263  -0.29925  -0.27814
 Alpha  occ. eigenvalues --   -0.25896  -0.22685  -0.22578  -0.20375  -0.19105
 Alpha virt. eigenvalues --   -0.03732  -0.02348   0.00390   0.00763   0.03310
 Alpha virt. eigenvalues --    0.04835   0.07031   0.07035   0.10123   0.10486
 Alpha virt. eigenvalues --    0.11005   0.11396   0.11963   0.12014   0.14388
 Alpha virt. eigenvalues --    0.15454   0.17532   0.17569   0.18767   0.19035
 Alpha virt. eigenvalues --    0.20002   0.20008   0.20518   0.21437   0.22769
 Alpha virt. eigenvalues --    0.24264   0.26287   0.27533   0.27781   0.29470
 Alpha virt. eigenvalues --    0.30998   0.31846   0.32373   0.32784   0.33414
 Alpha virt. eigenvalues --    0.34691   0.36571   0.36915   0.36930   0.39977
 Alpha virt. eigenvalues --    0.40923   0.47817   0.49603   0.49792   0.50342
 Alpha virt. eigenvalues --    0.51367   0.51814   0.52347   0.52497   0.53853
 Alpha virt. eigenvalues --    0.53885   0.54279   0.55036   0.55449   0.55938
 Alpha virt. eigenvalues --    0.55991   0.56649   0.57048   0.57158   0.59396
 Alpha virt. eigenvalues --    0.59828   0.60044   0.60598   0.60876   0.61052
 Alpha virt. eigenvalues --    0.61738   0.62042   0.62141   0.62604   0.62930
 Alpha virt. eigenvalues --    0.63039   0.63828   0.63999   0.64755   0.65304
 Alpha virt. eigenvalues --    0.66977   0.67013   0.67479   0.67899   0.68625
 Alpha virt. eigenvalues --    0.70763   0.72008   0.74422   0.75677   0.77008
 Alpha virt. eigenvalues --    0.79438   0.80380   0.81825   0.82274   0.83699
 Alpha virt. eigenvalues --    0.83931   0.84543   0.84825   0.85272   0.85881
 Alpha virt. eigenvalues --    0.86233   0.87060   0.87684   0.87719   0.88723
 Alpha virt. eigenvalues --    0.88890   0.90508   0.90763   0.91535   0.92647
 Alpha virt. eigenvalues --    0.94436   0.95039   0.95539   0.96357   0.98212
 Alpha virt. eigenvalues --    0.98598   1.00173   1.01890   1.03253   1.03947
 Alpha virt. eigenvalues --    1.04398   1.05593   1.06216   1.07219   1.08722
 Alpha virt. eigenvalues --    1.09515   1.10526   1.12305   1.13335   1.15735
 Alpha virt. eigenvalues --    1.16014   1.18314   1.19810   1.21390   1.22736
 Alpha virt. eigenvalues --    1.25283   1.25785   1.26474   1.27328   1.27328
 Alpha virt. eigenvalues --    1.29286   1.29735   1.32669   1.33656   1.37204
 Alpha virt. eigenvalues --    1.37290   1.40538   1.40905   1.41834   1.41983
 Alpha virt. eigenvalues --    1.42511   1.44551   1.46328   1.47019   1.47384
 Alpha virt. eigenvalues --    1.47876   1.48124   1.48759   1.49404   1.50538
 Alpha virt. eigenvalues --    1.50687   1.50980   1.51510   1.52048   1.54681
 Alpha virt. eigenvalues --    1.61026   1.65494   1.68919   1.71372   1.75064
 Alpha virt. eigenvalues --    1.75391   1.76678   1.77517   1.77953   1.78990
 Alpha virt. eigenvalues --    1.79172   1.79625   1.81715   1.83997   1.84626
 Alpha virt. eigenvalues --    1.86153   1.87460   1.89402   1.90934   1.91411
 Alpha virt. eigenvalues --    1.92209   1.92221   1.93464   1.93785   1.95006
 Alpha virt. eigenvalues --    1.95657   1.97809   1.98201   2.00181   2.01491
 Alpha virt. eigenvalues --    2.02632   2.02826   2.05302   2.05427   2.06389
 Alpha virt. eigenvalues --    2.07196   2.07456   2.08251   2.14630   2.15349
 Alpha virt. eigenvalues --    2.17003   2.17522   2.20587   2.21366   2.21967
 Alpha virt. eigenvalues --    2.22622   2.25287   2.26981   2.28070   2.29076
 Alpha virt. eigenvalues --    2.31320   2.32273   2.32844   2.34066   2.34452
 Alpha virt. eigenvalues --    2.35311   2.35464   2.35838   2.36840   2.38011
 Alpha virt. eigenvalues --    2.39403   2.40066   2.47473   2.47982   2.50476
 Alpha virt. eigenvalues --    2.53042   2.58340   2.58619   2.60389   2.61301
 Alpha virt. eigenvalues --    2.62109   2.63843   2.64625   2.65010   2.65540
 Alpha virt. eigenvalues --    2.66448   2.67723   2.68110   2.69970   2.75168
 Alpha virt. eigenvalues --    2.76249   2.76679   2.80066   2.81001   2.83247
 Alpha virt. eigenvalues --    2.85054   2.87950   2.89014   2.89104   2.90202
 Alpha virt. eigenvalues --    2.92170   2.97167   3.02658   3.05253   3.07398
 Alpha virt. eigenvalues --    3.15649   3.18565   3.36805   3.39394   3.47378
 Alpha virt. eigenvalues --    3.50600   3.96408   4.06865   4.09777   4.09994
 Alpha virt. eigenvalues --    4.10885   4.11468   4.14523   4.15451   4.15997
 Alpha virt. eigenvalues --    4.17114   4.23099   4.30267   4.30661   4.32503
 Alpha virt. eigenvalues --    4.41131   4.42823   4.44124   4.50216   4.59834
 Alpha virt. eigenvalues --    4.64754   4.82804   4.91936
          Condensed to atoms (all electrons):
               1          2          3          4          5          6
     1  C    4.904840   0.515261   0.001375  -0.038531  -0.019729   0.493314
     2  C    0.515261   5.135993   0.445937  -0.051914  -0.070410  -0.019619
     3  C    0.001375   0.445937   4.769924   0.445741  -0.024456  -0.039504
     4  C   -0.038531  -0.051914   0.445741   4.768318   0.448846  -0.005110
     5  C   -0.019729  -0.070410  -0.024456   0.448846   5.098067   0.518568
     6  C    0.493314  -0.019619  -0.039504  -0.005110   0.518568   4.909909
     7  H    0.356736  -0.037429   0.002728   0.001034   0.004419  -0.042722
     8  H   -0.047241   0.345073  -0.030391   0.005714   0.000476   0.004546
     9  C    0.008262  -0.092196   0.414197  -0.013836   0.014721  -0.000671
    10  C   -0.000709   0.016533  -0.018559   0.427143  -0.092041   0.008455
    11  H    0.004701   0.000492   0.004313  -0.043416   0.353914  -0.045821
    12  H   -0.041119   0.004166   0.001016   0.002778  -0.037411   0.356072
    13  C    0.000070  -0.001316  -0.055102   0.005301   0.009346  -0.000415
    14  C   -0.000336   0.013581   0.017978  -0.058520  -0.000865   0.000047
    15  H    0.000016  -0.000203   0.004271  -0.036634  -0.008144   0.000183
    16  H   -0.000000   0.000015   0.001143   0.002105  -0.000206   0.000004
    17  C    0.000000   0.000000  -0.000000   0.000000  -0.000000  -0.000000
    18  C    0.000000   0.000001  -0.000002  -0.000000   0.000000  -0.000000
    19  C   -0.000002   0.000017  -0.000024   0.000001  -0.000000   0.000000
    20  C    0.000034   0.000025   0.000617  -0.000024  -0.000002  -0.000000
    21  C   -0.000001   0.000026   0.000025   0.000017   0.000001   0.000000
    22  C   -0.000000  -0.000001   0.000034  -0.000002   0.000000   0.000000
    23  H   -0.000000  -0.000000   0.000000   0.000000  -0.000000  -0.000000
    24  H   -0.000000  -0.000000   0.000000  -0.000000  -0.000000   0.000000
    25  H   -0.000000  -0.000000  -0.000000   0.000000  -0.000000   0.000000
    26  C   -0.000000  -0.000045   0.000023   0.000000  -0.000000   0.000000
    27  C    0.001044  -0.024843  -0.052152   0.008847  -0.000080  -0.000015
    28  H    0.000002  -0.000019   0.000040  -0.000041  -0.000003   0.000000
    29  H   -0.000000  -0.000000  -0.000000   0.000000   0.000000   0.000000
    30  C    0.000033  -0.001144  -0.007219   0.000013  -0.000016  -0.000001
    31  C   -0.000022  -0.000719   0.000583   0.000009  -0.000000   0.000000
    32  H    0.000000   0.000010  -0.000005  -0.000000   0.000000  -0.000000
    33  O    0.000000  -0.000049   0.002379   0.000211   0.000000  -0.000000
    34  H   -0.000000   0.000006   0.000137  -0.000117  -0.000001   0.000000
    35  O   -0.000177   0.004367  -0.004066  -0.000407   0.000002   0.000004
    36  H    0.000013   0.000040   0.000056   0.000007  -0.000000  -0.000000
               7          8          9         10         11         12
     1  C    0.356736  -0.047241   0.008262  -0.000709   0.004701  -0.041119
     2  C   -0.037429   0.345073  -0.092196   0.016533   0.000492   0.004166
     3  C    0.002728  -0.030391   0.414197  -0.018559   0.004313   0.001016
     4  C    0.001034   0.005714  -0.013836   0.427143  -0.043416   0.002778
     5  C    0.004419   0.000476   0.014721  -0.092041   0.353914  -0.037411
     6  C   -0.042722   0.004546  -0.000671   0.008455  -0.045821   0.356072
     7  H    0.601707  -0.005548  -0.000192   0.000009  -0.000197  -0.004835
     8  H   -0.005548   0.591259  -0.016327  -0.000188   0.000019  -0.000184
     9  C   -0.000192  -0.016327   5.301538  -0.066866  -0.000165   0.000014
    10  C    0.000009  -0.000188  -0.066866   5.145806  -0.008804  -0.000196
    11  H   -0.000197   0.000019  -0.000165  -0.008804   0.609172  -0.005464
    12  H   -0.004835  -0.000184   0.000014  -0.000196  -0.005464   0.600797
    13  C   -0.000001   0.000014  -0.041555   0.446306   0.000309   0.000004
    14  C    0.000003   0.000027   0.438873   0.013157   0.000007  -0.000000
    15  H   -0.000000   0.000002   0.000786   0.349206   0.006742  -0.000013
    16  H   -0.000000   0.000000   0.003973  -0.027671  -0.000012  -0.000000
    17  C    0.000000   0.000000  -0.000015   0.000000   0.000000   0.000000
    18  C    0.000000  -0.000003  -0.000080  -0.000000  -0.000000  -0.000000
    19  C    0.000000  -0.000041   0.008847   0.000000   0.000000  -0.000000
    20  C   -0.000000   0.000040  -0.052152   0.000023  -0.000000   0.000000
    21  C   -0.000000  -0.000019  -0.024843  -0.000045  -0.000000  -0.000000
    22  C   -0.000000   0.000002   0.001044  -0.000000  -0.000000  -0.000000
    23  H   -0.000000  -0.000000   0.000012  -0.000000   0.000000   0.000000
    24  H   -0.000000  -0.000000   0.000000   0.000000  -0.000000   0.000000
    25  H    0.000000   0.000000   0.000001  -0.000000   0.000000  -0.000000
    26  C   -0.000000  -0.000016  -0.000870   0.000000  -0.000000   0.000000
    27  C   -0.000006   0.011434   0.255206  -0.000870   0.000001   0.000000
    28  H    0.000000  -0.000006   0.011434  -0.000016   0.000000  -0.000000
    29  H    0.000000   0.000000  -0.000006  -0.000000   0.000000  -0.000000
    30  C    0.000003   0.006402  -0.068531   0.000038   0.000000   0.000000
    31  C   -0.000000   0.001057   0.008045  -0.000000   0.000000   0.000000
    32  H    0.000000   0.000009  -0.000156   0.000000  -0.000000  -0.000000
    33  O   -0.000000  -0.000001  -0.059861   0.004883  -0.000000   0.000000
    34  H    0.000000   0.000000   0.007321   0.000894  -0.000000  -0.000000
    35  O   -0.000005  -0.002346   0.001402   0.000009   0.000000   0.000000
    36  H    0.000000   0.000114  -0.000333  -0.000000  -0.000000  -0.000000
              13         14         15         16         17         18
     1  C    0.000070  -0.000336   0.000016  -0.000000   0.000000   0.000000
     2  C   -0.001316   0.013581  -0.000203   0.000015   0.000000   0.000001
     3  C   -0.055102   0.017978   0.004271   0.001143  -0.000000  -0.000002
     4  C    0.005301  -0.058520  -0.036634   0.002105   0.000000  -0.000000
     5  C    0.009346  -0.000865  -0.008144  -0.000206  -0.000000   0.000000
     6  C   -0.000415   0.000047   0.000183   0.000004  -0.000000  -0.000000
     7  H   -0.000001   0.000003  -0.000000  -0.000000   0.000000   0.000000
     8  H    0.000014   0.000027   0.000002   0.000000   0.000000  -0.000003
     9  C   -0.041555   0.438873   0.000786   0.003973  -0.000015  -0.000080
    10  C    0.446306   0.013157   0.349206  -0.027671   0.000000  -0.000000
    11  H    0.000309   0.000007   0.006742  -0.000012   0.000000  -0.000000
    12  H    0.000004  -0.000000  -0.000013  -0.000000   0.000000  -0.000000
    13  C    5.183854   0.411482  -0.039922   0.339319   0.000000  -0.000000
    14  C    0.411482   4.715638   0.002917  -0.041007  -0.000001  -0.000016
    15  H   -0.039922   0.002917   0.594849  -0.005342  -0.000000  -0.000000
    16  H    0.339319  -0.041007  -0.005342   0.606324  -0.000000   0.000000
    17  C    0.000000  -0.000001  -0.000000  -0.000000   4.909909   0.518568
    18  C   -0.000000  -0.000016  -0.000000   0.000000   0.518568   5.098067
    19  C    0.000009   0.000013   0.000000  -0.000000  -0.005110   0.448846
    20  C    0.000583  -0.007219   0.000000  -0.000005  -0.039504  -0.024456
    21  C   -0.000719  -0.001144  -0.000000   0.000010  -0.019619  -0.070410
    22  C   -0.000022   0.000033  -0.000000   0.000000   0.493314  -0.019729
    23  H    0.000000  -0.000000  -0.000000  -0.000000   0.000183  -0.008144
    24  H    0.000000   0.000000   0.000000  -0.000000   0.356072  -0.037411
    25  H    0.000000   0.000000   0.000000  -0.000000  -0.045821   0.353914
    26  C   -0.000000   0.000038  -0.000000   0.000000   0.008455  -0.092041
    27  C    0.008045  -0.068531   0.000012  -0.000156  -0.000671   0.014721
    28  H    0.001057   0.006402  -0.000000   0.000009   0.004546   0.000476
    29  H   -0.000000   0.000003  -0.000000   0.000000  -0.042722   0.004419
    30  C   -0.000097   0.001796  -0.000000   0.000000   0.000047  -0.000865
    31  C    0.000004  -0.000097   0.000000  -0.000000  -0.000415   0.009346
    32  H   -0.000000   0.000000  -0.000000   0.000000   0.000004  -0.000206
    33  O   -0.064141   0.284873  -0.000058  -0.005314   0.000004   0.000002
    34  H   -0.006361  -0.032326  -0.000016   0.008025  -0.000000  -0.000000
    35  O   -0.000014  -0.000461   0.000000   0.000000  -0.000000   0.000000
    36  H   -0.000001   0.000010  -0.000000  -0.000000   0.000000  -0.000001
              19         20         21         22         23         24
     1  C   -0.000002   0.000034  -0.000001  -0.000000  -0.000000  -0.000000
     2  C    0.000017   0.000025   0.000026  -0.000001  -0.000000  -0.000000
     3  C   -0.000024   0.000617   0.000025   0.000034   0.000000   0.000000
     4  C    0.000001  -0.000024   0.000017  -0.000002   0.000000  -0.000000
     5  C   -0.000000  -0.000002   0.000001   0.000000  -0.000000  -0.000000
     6  C    0.000000  -0.000000   0.000000   0.000000  -0.000000   0.000000
     7  H    0.000000  -0.000000  -0.000000  -0.000000  -0.000000  -0.000000
     8  H   -0.000041   0.000040  -0.000019   0.000002  -0.000000  -0.000000
     9  C    0.008847  -0.052152  -0.024843   0.001044   0.000012   0.000000
    10  C    0.000000   0.000023  -0.000045  -0.000000  -0.000000   0.000000
    11  H    0.000000  -0.000000  -0.000000  -0.000000   0.000000  -0.000000
    12  H   -0.000000   0.000000  -0.000000  -0.000000   0.000000   0.000000
    13  C    0.000009   0.000583  -0.000719  -0.000022   0.000000   0.000000
    14  C    0.000013  -0.007219  -0.001144   0.000033  -0.000000   0.000000
    15  H    0.000000   0.000000  -0.000000  -0.000000  -0.000000   0.000000
    16  H   -0.000000  -0.000005   0.000010   0.000000  -0.000000  -0.000000
    17  C   -0.005110  -0.039504  -0.019619   0.493314   0.000183   0.356072
    18  C    0.448846  -0.024456  -0.070410  -0.019729  -0.008144  -0.037411
    19  C    4.768318   0.445741  -0.051914  -0.038531  -0.036634   0.002778
    20  C    0.445741   4.769924   0.445937   0.001375   0.004271   0.001016
    21  C   -0.051914   0.445937   5.135993   0.515261  -0.000203   0.004166
    22  C   -0.038531   0.001375   0.515261   4.904840   0.000016  -0.041119
    23  H   -0.036634   0.004271  -0.000203   0.000016   0.594849  -0.000013
    24  H    0.002778   0.001016   0.004166  -0.041119  -0.000013   0.600797
    25  H   -0.043416   0.004313   0.000492   0.004701   0.006742  -0.005464
    26  C    0.427143  -0.018559   0.016533  -0.000709   0.349206  -0.000196
    27  C   -0.013836   0.414197  -0.092196   0.008262   0.000786   0.000014
    28  H    0.005714  -0.030391   0.345073  -0.047241   0.000002  -0.000184
    29  H    0.001034   0.002728  -0.037429   0.356736  -0.000000  -0.004835
    30  C   -0.058520   0.017978   0.013581  -0.000336   0.002917  -0.000000
    31  C    0.005301  -0.055102  -0.001316   0.000070  -0.039922   0.000004
    32  H    0.002105   0.001143   0.000015  -0.000000  -0.005342  -0.000000
    33  O   -0.000407  -0.004066   0.004367  -0.000177   0.000000   0.000000
    34  H    0.000007   0.000056   0.000040   0.000013  -0.000000  -0.000000
    35  O    0.000211   0.002379  -0.000049   0.000000  -0.000058   0.000000
    36  H   -0.000117   0.000137   0.000006  -0.000000  -0.000016  -0.000000
              25         26         27         28         29         30
     1  C   -0.000000  -0.000000   0.001044   0.000002  -0.000000   0.000033
     2  C   -0.000000  -0.000045  -0.024843  -0.000019  -0.000000  -0.001144
     3  C   -0.000000   0.000023  -0.052152   0.000040  -0.000000  -0.007219
     4  C    0.000000   0.000000   0.008847  -0.000041   0.000000   0.000013
     5  C   -0.000000  -0.000000  -0.000080  -0.000003   0.000000  -0.000016
     6  C    0.000000   0.000000  -0.000015   0.000000   0.000000  -0.000001
     7  H    0.000000  -0.000000  -0.000006   0.000000   0.000000   0.000003
     8  H    0.000000  -0.000016   0.011434  -0.000006   0.000000   0.006402
     9  C    0.000001  -0.000870   0.255206   0.011434  -0.000006  -0.068531
    10  C   -0.000000   0.000000  -0.000870  -0.000016  -0.000000   0.000038
    11  H    0.000000  -0.000000   0.000001   0.000000   0.000000   0.000000
    12  H   -0.000000   0.000000   0.000000  -0.000000  -0.000000   0.000000
    13  C    0.000000  -0.000000   0.008045   0.001057  -0.000000  -0.000097
    14  C    0.000000   0.000038  -0.068531   0.006402   0.000003   0.001796
    15  H    0.000000  -0.000000   0.000012  -0.000000  -0.000000  -0.000000
    16  H   -0.000000   0.000000  -0.000156   0.000009   0.000000   0.000000
    17  C   -0.045821   0.008455  -0.000671   0.004546  -0.042722   0.000047
    18  C    0.353914  -0.092041   0.014721   0.000476   0.004419  -0.000865
    19  C   -0.043416   0.427143  -0.013836   0.005714   0.001034  -0.058520
    20  C    0.004313  -0.018559   0.414197  -0.030391   0.002728   0.017978
    21  C    0.000492   0.016533  -0.092196   0.345073  -0.037429   0.013581
    22  C    0.004701  -0.000709   0.008262  -0.047241   0.356736  -0.000336
    23  H    0.006742   0.349206   0.000786   0.000002  -0.000000   0.002917
    24  H   -0.005464  -0.000196   0.000014  -0.000184  -0.004835  -0.000000
    25  H    0.609172  -0.008804  -0.000165   0.000019  -0.000197   0.000007
    26  C   -0.008804   5.145806  -0.066866  -0.000188   0.000009   0.013157
    27  C   -0.000165  -0.066866   5.301538  -0.016327  -0.000192   0.438873
    28  H    0.000019  -0.000188  -0.016327   0.591259  -0.005548   0.000027
    29  H   -0.000197   0.000009  -0.000192  -0.005548   0.601707   0.000003
    30  C    0.000007   0.013157   0.438873   0.000027   0.000003   4.715638
    31  C    0.000309   0.446306  -0.041555   0.000014  -0.000001   0.411482
    32  H   -0.000012  -0.027671   0.003973   0.000000  -0.000000  -0.041007
    33  O    0.000000   0.000009   0.001402  -0.002346  -0.000005  -0.000461
    34  H   -0.000000  -0.000000  -0.000333   0.000114   0.000000   0.000010
    35  O   -0.000000   0.004883  -0.059861  -0.000001  -0.000000   0.284873
    36  H   -0.000000   0.000894   0.007321   0.000000   0.000000  -0.032326
              31         32         33         34         35         36
     1  C   -0.000022   0.000000   0.000000  -0.000000  -0.000177   0.000013
     2  C   -0.000719   0.000010  -0.000049   0.000006   0.004367   0.000040
     3  C    0.000583  -0.000005   0.002379   0.000137  -0.004066   0.000056
     4  C    0.000009  -0.000000   0.000211  -0.000117  -0.000407   0.000007
     5  C   -0.000000   0.000000   0.000000  -0.000001   0.000002  -0.000000
     6  C    0.000000  -0.000000  -0.000000   0.000000   0.000004  -0.000000
     7  H   -0.000000   0.000000  -0.000000   0.000000  -0.000005   0.000000
     8  H    0.001057   0.000009  -0.000001   0.000000  -0.002346   0.000114
     9  C    0.008045  -0.000156  -0.059861   0.007321   0.001402  -0.000333
    10  C   -0.000000   0.000000   0.004883   0.000894   0.000009  -0.000000
    11  H    0.000000  -0.000000  -0.000000  -0.000000   0.000000  -0.000000
    12  H    0.000000  -0.000000   0.000000  -0.000000   0.000000  -0.000000
    13  C    0.000004  -0.000000  -0.064141  -0.006361  -0.000014  -0.000001
    14  C   -0.000097   0.000000   0.284873  -0.032326  -0.000461   0.000010
    15  H    0.000000  -0.000000  -0.000058  -0.000016   0.000000  -0.000000
    16  H   -0.000000   0.000000  -0.005314   0.008025   0.000000  -0.000000
    17  C   -0.000415   0.000004   0.000004  -0.000000  -0.000000   0.000000
    18  C    0.009346  -0.000206   0.000002  -0.000000   0.000000  -0.000001
    19  C    0.005301   0.002105  -0.000407   0.000007   0.000211  -0.000117
    20  C   -0.055102   0.001143  -0.004066   0.000056   0.002379   0.000137
    21  C   -0.001316   0.000015   0.004367   0.000040  -0.000049   0.000006
    22  C    0.000070  -0.000000  -0.000177   0.000013   0.000000  -0.000000
    23  H   -0.039922  -0.005342   0.000000  -0.000000  -0.000058  -0.000016
    24  H    0.000004  -0.000000   0.000000  -0.000000   0.000000  -0.000000
    25  H    0.000309  -0.000012   0.000000  -0.000000  -0.000000  -0.000000
    26  C    0.446306  -0.027671   0.000009  -0.000000   0.004883   0.000894
    27  C   -0.041555   0.003973   0.001402  -0.000333  -0.059861   0.007321
    28  H    0.000014   0.000000  -0.002346   0.000114  -0.000001   0.000000
    29  H   -0.000001  -0.000000  -0.000005   0.000000  -0.000000   0.000000
    30  C    0.411482  -0.041007  -0.000461   0.000010   0.284873  -0.032326
    31  C    5.183854   0.339319  -0.000014  -0.000001  -0.064141  -0.006361
    32  H    0.339319   0.606324   0.000000  -0.000000  -0.005314   0.008025
    33  O   -0.000014   0.000000   8.234613   0.243543  -0.000011  -0.000001
    34  H   -0.000001  -0.000000   0.243543   0.372566  -0.000001   0.000000
    35  O   -0.064141  -0.005314  -0.000011  -0.000001   8.234613   0.243543
    36  H   -0.006361   0.008025  -0.000001   0.000000   0.243543   0.372566
 Mulliken charges:
               1
     1  C   -0.137836
     2  C   -0.181637
     3  C    0.118961
     4  C    0.132466
     5  C   -0.194995
     6  C   -0.137223
     7  H    0.124295
     8  H    0.136121
     9  C   -0.037021
    10  C   -0.196497
    11  H    0.124208
    12  H    0.124375
    13  C   -0.196039
    14  C    0.303642
    15  H    0.131347
    16  H    0.118787
    17  C   -0.137223
    18  C   -0.194995
    19  C    0.132466
    20  C    0.118961
    21  C   -0.181637
    22  C   -0.137836
    23  H    0.131347
    24  H    0.124375
    25  H    0.124208
    26  C   -0.196497
    27  C   -0.037021
    28  H    0.136121
    29  H    0.124295
    30  C    0.303642
    31  C   -0.196039
    32  H    0.118787
    33  O   -0.639376
    34  H    0.406423
    35  O   -0.639376
    36  H    0.406423
 Sum of Mulliken charges =  -0.00000
 Mulliken charges with hydrogens summed into heavy atoms:
               1
     1  C   -0.013542
     2  C   -0.045517
     3  C    0.118961
     4  C    0.132466
     5  C   -0.070787
     6  C   -0.012848
     9  C   -0.037021
    10  C   -0.065151
    13  C   -0.077251
    14  C    0.303642
    17  C   -0.012848
    18  C   -0.070787
    19  C    0.132466
    20  C    0.118961
    21  C   -0.045517
    22  C   -0.013542
    26  C   -0.065151
    27  C   -0.037021
    30  C    0.303642
    31  C   -0.077251
    33  O   -0.232953
    35  O   -0.232953
 Electronic spatial extent (au):  <R**2>=           5972.2469
 Charge=             -0.0000 electrons
 Dipole moment (field-independent basis, Debye):
    X=              0.0000    Y=             -0.0000    Z=              0.9666  Tot=              0.9666
 Quadrupole moment (field-independent basis, Debye-Ang):
   XX=           -105.2949   YY=           -113.4819   ZZ=           -122.9620
   XY=              8.6085   XZ=              0.0000   YZ=             -0.0000
 Traceless Quadrupole moment (field-independent basis, Debye-Ang):
   XX=              8.6180   YY=              0.4310   ZZ=             -9.0490
   XY=              8.6085   XZ=              0.0000   YZ=             -0.0000
 Octapole moment (field-independent basis, Debye-Ang**2):
  XXX=             -0.0000  YYY=              0.0000  ZZZ=             30.5682  XYY=             -0.0000
  XXY=              0.0000  XXZ=             31.0186  XZZ=              0.0000  YZZ=             -0.0000
  YYZ=             -7.4584  XYZ=             34.2081
 Hexadecapole moment (field-independent basis, Debye-Ang**3):
 XXXX=          -1741.9451 YYYY=          -4719.8677 ZZZZ=          -1050.2145 XXXY=            354.3121
 XXXZ=              0.0000 YYYX=            344.6150 YYYZ=              0.0000 ZZZX=             -0.0000
 ZZZY=             -0.0000 XXYY=          -1136.6942 XXZZ=           -372.3978 YYZZ=          -1043.4629
 XXYZ=             -0.0000 YYXZ=             -0.0000 ZZXY=            101.1031
 N-N= 1.673817708256D+03 E-N=-5.487817015344D+03  KE= 9.123145649984D+02
 Symmetry A    KE= 4.576506187698D+02
 Symmetry B    KE= 4.546639462286D+02
 Unable to Open any file for archive entry.
 1\1\GINC-CCC131\SP\RB3LYP TD-FC\6-31G(d)\C20H14O2\ROOT\20-Feb-2025\0\\
 # td=(nstat=16) b3lyp/6-31g(d)\\binol | No.4\\0,1\C,0,-2.867679,-1.872
 886,-1.572161\C,0,-1.757153,-1.391952,-0.915822\C,0,-1.79947,-0.170657
 ,-0.186153\C,0,-3.036563,0.557478,-0.183044\C,0,-4.167222,0.0287,-0.86
 1395\C,0,-4.092393,-1.164552,-1.54057\H,0,-2.802054,-2.806535,-2.12505
 9\H,0,-0.824555,-1.942195,-0.962217\C,0,-0.657725,0.354245,0.508401\C,
 0,-3.097346,1.808637,0.481099\H,0,-5.095883,0.594862,-0.838708\H,0,-4.
 962245,-1.558747,-2.058836\C,0,-1.989727,2.323754,1.10553\C,0,-0.77032
 6,1.60184,1.111744\H,0,-4.033429,2.361648,0.483717\H,0,-2.038055,3.288
 059,1.609358\C,0,4.092393,1.164552,-1.54057\C,0,4.167222,-0.028701,-0.
 861395\C,0,3.036563,-0.557478,-0.183044\C,0,1.79947,0.170657,-0.186153
 \C,0,1.757153,1.391952,-0.915822\C,0,2.867679,1.872886,-1.572161\H,0,4
 .033429,-2.361648,0.483717\H,0,4.962245,1.558747,-2.058836\H,0,5.09588
 3,-0.594863,-0.838707\C,0,3.097346,-1.808637,0.481099\C,0,0.657725,-0.
 354245,0.508401\H,0,0.824555,1.942195,-0.962217\H,0,2.802054,2.806535,
 -2.125059\C,0,0.770326,-1.60184,1.111744\C,0,1.989727,-2.323754,1.1055
 3\H,0,2.038055,-3.288059,1.609358\O,0,0.324221,2.10946,1.759335\H,0,0.
 093612,2.97442,2.131305\O,0,-0.324221,-2.10946,1.759335\H,0,-0.093612,
 -2.97442,2.131305\\Version=ES64L-G16RevC.02\State=1-A\HF=-921.0136335\
 RMSD=6.057e-09\PG=C02 [X(C20H14O2)]\\@
 The archive entry for this job was punched.


 I DO NOT DEFINE TIME, SPACE, PLACE, AND MOTION, AS BEING WELL KNOWN TO ALL.
                                            -- NEWTON (1642-1726), PRINCIPIA
 Job cpu time:       0 days  0 hours 21 minutes 34.0 seconds.
 Elapsed time:       0 days  0 hours  2 minutes 54.1 seconds.
 File lengths (MBytes):  RWF=   1290 Int=      0 D2E=      0 Chk=     78 Scr=      1
 Normal termination of Gaussian 16 at Thu Feb 20 09:29:53 2025.
