 Entering Gaussian System, Link 0=/apl/gaussian/16c02/g16/._.g16
 Initial command:
 /apl/gaussian/16c02/g16/l1.exe "/lwork/users/ux8/8279364.ccpbs1/gaussian/Gau-2926808.inp" -scrdir="/lwork/users/ux8/8279364.ccpbs1/gaussian/"
 Default CPUs for threads: 56,57,58,59,60,61,62,63
 Default is to use a total of   8 processors:
                                8 via shared-memory
                                1 via Linda
 Entering Link 1 = /apl/gaussian/16c02/g16/l1.exe PID=   2926904.
  
 Copyright (c) 1988-2021, Gaussian, Inc.  All Rights Reserved.
  
 This is part of the Gaussian(R) 16 program.  It is based on
 the Gaussian(R) 09 system (copyright 2009, Gaussian, Inc.),
 the Gaussian(R) 03 system (copyright 2003, Gaussian, Inc.),
 the Gaussian(R) 98 system (copyright 1998, Gaussian, Inc.),
 the Gaussian(R) 94 system (copyright 1995, Gaussian, Inc.),
 the Gaussian 92(TM) system (copyright 1992, Gaussian, Inc.),
 the Gaussian 90(TM) system (copyright 1990, Gaussian, Inc.),
 the Gaussian 88(TM) system (copyright 1988, Gaussian, Inc.),
 the Gaussian 86(TM) system (copyright 1986, Carnegie Mellon
 University), and the Gaussian 82(TM) system (copyright 1983,
 Carnegie Mellon University). Gaussian is a federally registered
 trademark of Gaussian, Inc.
  
 This software contains proprietary and confidential information,
 including trade secrets, belonging to Gaussian, Inc.
  
 This software is provided under written license and may be
 used, copied, transmitted, or stored only in accord with that
 written license.
  
 The following legend is applicable only to US Government
 contracts under FAR:
  
                    RESTRICTED RIGHTS LEGEND
  
 Use, reproduction and disclosure by the US Government is
 subject to restrictions as set forth in subparagraphs (a)
 and (c) of the Commercial Computer Software - Restricted
 Rights clause in FAR 52.227-19.
  
 Gaussian, Inc.
 340 Quinnipiac St., Bldg. 40, Wallingford CT 06492
  
  
 ---------------------------------------------------------------
 Warning -- This program may not be used in any manner that
 competes with the business of Gaussian, Inc. or will provide
 assistance to any competitor of Gaussian, Inc.  The licensee
 of this program is prohibited from giving any competitor of
 Gaussian, Inc. access to this program.  By using this program,
 the user acknowledges that Gaussian, Inc. is engaged in the
 business of creating and licensing software in the field of
 computational chemistry and represents and warrants to the
 licensee that it is not a competitor of Gaussian, Inc. and that
 it will not use this program in any manner prohibited above.
 ---------------------------------------------------------------
  

 Cite this work as:
 Gaussian 16, Revision C.02,
 M. J. Frisch, G. W. Trucks, H. B. Schlegel, G. E. Scuseria, 
 M. A. Robb, J. R. Cheeseman, G. Scalmani, V. Barone, 
 G. A. Petersson, H. Nakatsuji, X. Li, M. Caricato, A. V. Marenich, 
 J. Bloino, B. G. Janesko, R. Gomperts, B. Mennucci, H. P. Hratchian, 
 J. V. Ortiz, A. F. Izmaylov, J. L. Sonnenberg, D. Williams-Young, 
 F. Ding, F. Lipparini, F. Egidi, J. Goings, B. Peng, A. Petrone, 
 T. Henderson, D. Ranasinghe, V. G. Zakrzewski, J. Gao, N. Rega, 
 G. Zheng, W. Liang, M. Hada, M. Ehara, K. Toyota, R. Fukuda, 
 J. Hasegawa, M. Ishida, T. Nakajima, Y. Honda, O. Kitao, H. Nakai, 
 T. Vreven, K. Throssell, J. A. Montgomery, Jr., J. E. Peralta, 
 F. Ogliaro, M. J. Bearpark, J. J. Heyd, E. N. Brothers, K. N. Kudin, 
 V. N. Staroverov, T. A. Keith, R. Kobayashi, J. Normand, 
 K. Raghavachari, A. P. Rendell, J. C. Burant, S. S. Iyengar, 
 J. Tomasi, M. Cossi, J. M. Millam, M. Klene, C. Adamo, R. Cammi, 
 J. W. Ochterski, R. L. Martin, K. Morokuma, O. Farkas, 
 J. B. Foresman, and D. J. Fox, Gaussian, Inc., Wallingford CT, 2019.
 
 ******************************************
 Gaussian 16:  ES64L-G16RevC.02  7-Dec-2021
                20-Feb-2025 
 ******************************************
 %chk=binol.010.tddft.chk
 %mem=9600MB
 SetSPE:  set environment variable "OMP_PROC_BIND" = "true"
 SetSPE:  set environment variable "OMP_PLACES" = "{56},{57},{58},{59},{60},{61},{62},{63}"
 ------------------------------
 # td=(nstat=16) b3lyp/6-31g(d)
 ------------------------------
 1/38=1,172=1/1;
 2/12=2,17=6,18=5,40=1/2;
 3/5=1,6=6,7=1,11=9,25=1,30=1,74=-5/1,2,3,8;
 4//1;
 5/5=2,38=5/2;
 8/6=1,10=2,108=16/1;
 9/41=16,42=1,70=2/14;
 6/7=2,8=2,9=2,10=2/1;
 99/5=1,9=1/99;
 -------------
 binol | No.10
 -------------
 Symbolic Z-matrix:
 Charge =  0 Multiplicity = 1
 C                    -3.13137  -1.82492  -1.19562 
 C                    -1.94615  -1.34439  -0.67869 
 C                    -1.86037  -0.11693   0.03893 
 C                    -3.05401   0.68531  -0.01313 
 C                    -4.27998   0.14695  -0.48754 
 C                    -4.33603  -1.10771  -1.04479 
 H                    -3.12678  -2.76129  -1.7481 
 H                    -1.04642  -1.90062  -0.88871 
 C                    -0.63558   0.40649   0.68001 
 C                    -2.96969   2.07396   0.2549 
 H                    -5.16467   0.77871  -0.45005 
 H                    -5.27182  -1.5104   -1.4222 
 C                    -1.75155   2.62841   0.5159 
 C                    -0.60307   1.81025   0.68028 
 H                    -3.86304   2.68974   0.19095 
 H                    -1.64705   3.70215   0.66321 
 C                     4.33563   1.10822  -1.04487 
 C                     4.27989  -0.14647  -0.48767 
 C                     3.05406  -0.68512  -0.01323 
 C                     1.86028   0.11687   0.03895 
 C                     1.94575   1.34437  -0.67863 
 C                     3.1308    1.82517  -1.19566 
 H                     3.86341  -2.68946   0.19072 
 H                     5.27133   1.51113  -1.42229 
 H                     5.16474  -0.77802  -0.45024 
 C                     2.96995  -2.07382   0.25465 
 C                     0.6356   -0.40685   0.6801 
 H                     1.04581   1.90035  -0.88859 
 H                     3.12599   2.76152  -1.74817 
 C                     0.60323  -1.81058   0.67983 
 C                     1.75188  -2.62849   0.51548 
 H                     1.64756  -3.70226   0.66272 
 O                     0.49948   2.42327   1.23402 
 H                     0.3379    3.37745   1.28596 
 O                    -0.49896  -2.42394   1.2339 
 H                    -0.3368   -3.378     1.28628 
 
                          Input orientation:                          
 ---------------------------------------------------------------------
 Center     Atomic      Atomic             Coordinates (Angstroms)
 Number     Number       Type             X           Y           Z
 ---------------------------------------------------------------------
      1          6           0       -3.131365   -1.824923   -1.195616
      2          6           0       -1.946151   -1.344387   -0.678689
      3          6           0       -1.860367   -0.116928    0.038926
      4          6           0       -3.054013    0.685309   -0.013130
      5          6           0       -4.279983    0.146951   -0.487542
      6          6           0       -4.336034   -1.107707   -1.044792
      7          1           0       -3.126782   -2.761294   -1.748099
      8          1           0       -1.046420   -1.900618   -0.888705
      9          6           0       -0.635575    0.406493    0.680007
     10          6           0       -2.969685    2.073958    0.254902
     11          1           0       -5.164675    0.778709   -0.450045
     12          1           0       -5.271824   -1.510398   -1.422199
     13          6           0       -1.751545    2.628406    0.515895
     14          6           0       -0.603072    1.810254    0.680279
     15          1           0       -3.863037    2.689737    0.190949
     16          1           0       -1.647049    3.702145    0.663207
     17          6           0        4.335635    1.108218   -1.044873
     18          6           0        4.279892   -0.146469   -0.487669
     19          6           0        3.054062   -0.685120   -0.013232
     20          6           0        1.860282    0.116865    0.038953
     21          6           0        1.945746    1.344370   -0.678631
     22          6           0        3.130800    1.825172   -1.195663
     23          1           0        3.863406   -2.689457    0.190718
     24          1           0        5.271327    1.511131   -1.422287
     25          1           0        5.164735   -0.778022   -0.450237
     26          6           0        2.969954   -2.073824    0.254650
     27          6           0        0.635596   -0.406846    0.680103
     28          1           0        1.045815    1.900348   -0.888587
     29          1           0        3.125987    2.761524   -1.748172
     30          6           0        0.603227   -1.810580    0.679834
     31          6           0        1.751883   -2.628488    0.515476
     32          1           0        1.647564   -3.702255    0.662719
     33          8           0        0.499477    2.423274    1.234022
     34          1           0        0.337902    3.377452    1.285957
     35          8           0       -0.498960   -2.423942    1.233902
     36          1           0       -0.336797   -3.377997    1.286275
 ---------------------------------------------------------------------
                    Distance matrix (angstroms):
                    1          2          3          4          5
     1  C    0.000000
     2  C    1.379442   0.000000
     3  C    2.461052   1.424425   0.000000
     4  C    2.775882   2.406240   1.439126   0.000000
     5  C    2.389347   2.776220   2.490249   1.420528   0.000000
     6  C    1.410097   2.429319   2.878370   2.433683   1.373985
     7  H    1.087221   2.131936   3.433648   3.859337   3.372946
     8  H    2.108772   1.078432   2.169000   3.388817   3.848298
     9  C    3.837466   2.574732   1.478198   2.531209   3.835654
    10  C    4.163102   3.688400   2.465201   1.416792   2.445702
    11  H    3.386610   3.862475   3.458281   2.157432   1.087752
    12  H    2.175277   3.411813   3.964175   3.424221   2.145726
    13  C    4.966418   4.153070   2.788584   2.398315   3.682052
    14  C    4.808925   3.688145   2.388756   2.784498   4.201197
    15  H    4.779128   4.550261   3.451256   2.171152   2.664574
    16  H    6.017217   5.230452   3.875635   3.396804   4.571211
    17  C    8.023847   6.753532   6.408279   7.473302   8.686974
    18  C    7.631850   6.343115   6.162869   7.396161   8.564903
    19  C    6.399741   5.087199   4.947441   6.259925   7.396319
    20  C    5.496475   4.139952   3.727987   4.947336   6.162869
    21  C    6.007391   4.730357   4.139659   5.086732   6.342715
    22  C    7.248304   6.007395   5.496154   6.399186   7.631354
    23  H    7.183047   6.026279   6.277143   7.699434   8.649857
    24  H    9.043554   7.797366   7.459677   8.484043   9.693413
    25  H    8.395050   7.137062   7.073075   8.359439   9.489977
    26  C    6.276250   5.056806   5.216127   6.631191   7.618679
    27  C    4.440637   3.064428   2.593259   3.909807   5.082618
    28  H    5.605421   4.418622   3.657264   4.364783   5.621331
    29  H    7.777870   6.612782   6.028510   6.746365   7.954469
    30  C    4.179078   2.926132   3.057534   4.481636   5.388918
    31  C    5.236379   4.092725   4.425312   5.861511   6.715096
    32  H    5.460398   4.502633   5.054628   6.466244   7.160677
    33  O    6.093713   4.882093   3.667389   4.147674   5.566747
    34  H    6.727460   5.601116   4.312559   4.521100   5.908155
    35  O    3.631933   2.630172   2.933208   4.213173   4.885591
    36  H    4.047398   3.253717   3.809425   5.057882   5.578566
                    6          7          8          9         10
     6  C    0.000000
     7  H    2.165937   0.000000
     8  H    3.387423   2.409819   0.000000
     9  C    4.354438   4.704964   2.820002   0.000000
    10  C    3.698528   5.236063   4.561145   2.899866   0.000000
    11  H    2.144513   4.285974   4.932671   4.682767   2.644353
    12  H    1.086416   2.504427   4.276789   5.439535   4.578222
    13  C    4.803527   6.005482   4.793971   2.491830   1.363596
    14  C    5.042358   5.758922   4.053250   1.404137   2.418955
    15  H    4.021363   5.832300   5.492754   3.983578   1.086900
    16  H    5.769105   7.055498   5.844668   3.447417   2.137071
    17  C    8.950317   8.435361   6.167982   5.308536   7.482631
    18  C    8.687263   7.955175   5.622052   5.082426   7.618272
    19  C    7.473702   6.747080   4.365529   3.909683   6.630983
    20  C    6.408464   6.028944   3.657828   2.593094   5.215882
    21  C    6.753334   6.612925   4.418952   3.064103   5.056209
    22  C    8.023600   7.778058   5.605792   4.440312   6.275504
    23  H    8.441518   7.254440   5.088596   5.483169   8.329788
    24  H    9.965049   9.428043   7.199908   6.366424   8.428761
    25  H    9.525062   8.623634   6.326999   6.026950   8.648688
    26  C    7.483274   6.453976   4.179536   4.396901   7.244543
    27  C    5.308820   5.059158   2.742570   1.509104   4.396958
    28  H    6.167422   6.315080   4.338754   2.742109   4.178750
    29  H    8.434895   8.342580   6.315317   5.058811   6.453082
    30  C    5.278699   4.551009   2.278104   2.539694   5.294894
    31  C    6.466061   5.379850   3.214346   3.864988   6.668891
    32  H    6.741715   5.430638   3.593099   4.700514   7.406075
    33  O    6.406480   6.994465   5.058835   2.379639   3.621572
    34  H    6.884382   7.674225   5.873970   3.184561   3.701662
    35  O    4.652747   3.988933   2.253673   2.887356   5.224369
    36  H    5.155772   4.167945   2.723371   3.844372   6.141632
                   11         12         13         14         15
    11  H    0.000000
    12  H    2.489292   0.000000
    13  C    4.000484   5.768732   0.000000
    14  C    4.811438   6.102818   1.419643   0.000000
    15  H    2.399409   4.714664   2.137229   3.411789   0.000000
    16  H    4.707388   6.682703   1.088823   2.160887   2.481653
    17  C    9.524615   9.965079   6.465348   5.278241   8.440775
    18  C    9.489848   9.693757   6.714559   5.388525   8.649386
    19  C    8.359500   8.484495   5.861168   4.481348   7.699195
    20  C    7.072989   7.459885   4.424998   3.057283   6.276874
    21  C    7.136548   7.797173   4.092139   2.925775   6.025624
    22  C    8.394399   9.043309   5.235638   4.178658   7.182195
    23  H    9.692523   9.351155   7.740354   6.358970   9.414545
    24  H   10.506752  10.967574   7.370589   6.246505   9.350307
    25  H   10.446058  10.507276   7.769948   6.422214   9.692117
    26  C    8.649030   8.429483   6.668716   5.294689   8.329786
    27  C    6.027099   6.366719   3.864992   2.539652   5.483229
    28  H    6.326182   7.199340   3.213699   2.277781   5.087766
    29  H    8.622747   9.427556   5.379037   4.550623   7.253399
    30  C    6.422596   6.246989   5.027566   3.816490   6.359196
    31  C    7.770457   7.371375   6.317352   5.027465   7.740553
    32  H    8.229452   7.551758   7.186986   5.954278   8.452624
    33  O    6.133783   7.472429   2.371684   1.377693   4.493388
    34  H    6.328153   7.917968   2.349437   1.925717   4.395439
    35  O    5.904367   5.538020   5.254591   4.271505   6.209225
    36  H    6.603137   5.931125   6.218671   5.230304   7.102922
                   16         17         18         19         20
    16  H    0.000000
    17  C    6.740809   0.000000
    18  C    7.159956   1.373981   0.000000
    19  C    6.465764   2.433675   1.420526   0.000000
    20  C    5.054235   2.878338   2.490218   1.439102   0.000000
    21  C    4.501978   2.429294   2.776203   2.406231   1.424430
    22  C    5.459512   1.410102   2.389359   2.775896   2.461058
    23  H    8.452274   4.021445   2.664668   2.171175   3.451229
    24  H    7.550745   1.086416   2.145715   3.424211   3.964143
    25  H    8.228734   2.144505   1.087753   2.157439   3.458257
    26  C    7.405772   3.698545   2.445746   1.416804   2.465160
    27  C    4.700485   4.354452   3.835672   2.531230   1.478243
    28  H    3.592500   3.387449   3.848305   3.388797   2.168986
    29  H    5.429677   2.165941   3.372949   3.859345   3.433664
    30  C    5.954339   5.042308   4.201213   2.784527   2.388715
    31  C    7.186896   4.803482   3.682058   2.398308   2.788510
    32  H    8.104296   5.769077   4.571231   3.396800   3.875566
    33  O    2.562989   4.651757   4.884602   4.212322   2.932491
    34  H    2.105534   5.154033   5.577011   5.056670   3.808423
    35  O    6.258813   6.406425   5.566697   4.147627   3.667373
    36  H    7.227267   6.884185   5.907916   4.520866   4.312427
                   21         22         23         24         25
    21  C    0.000000
    22  C    1.379437   0.000000
    23  H    4.550269   4.779188   0.000000
    24  H    3.411792   2.175278   4.714760   0.000000
    25  H    3.862461   3.386616   2.399555   2.489270   0.000000
    26  C    3.688369   4.163106   1.086898   4.578246   2.644434
    27  C    2.574764   3.837505   3.983537   5.439548   4.682792
    28  H    1.078457   2.108817   5.492725   4.276830   4.932679
    29  H    2.131950   1.087219   5.832347   2.504430   4.285967
    30  C    3.688020   4.808826   3.411807   6.102773   4.811506
    31  C    4.152960   4.966336   2.137221   5.768696   4.000548
    32  H    5.230350   6.017144   2.481633   6.682687   4.707473
    33  O    2.629443   3.631109   6.208423   5.537015   5.903360
    34  H    3.252413   4.045774   7.101839   5.929285   6.601564
    35  O    4.882064   6.093678   4.493214   7.472373   6.133744
    36  H    5.601036   6.727348   4.395001   7.917761   6.327891
                   26         27         28         29         30
    26  C    0.000000
    27  C    2.899837   0.000000
    28  H    4.561068   2.819967   0.000000
    29  H    5.236051   4.705012   2.409902   0.000000
    30  C    2.418982   1.404107   4.053001   5.758790   0.000000
    31  C    1.363591   2.491765   4.793775   6.005372   1.419647
    32  H    2.137059   3.447333   5.844469   7.055393   2.160872
    33  O    5.223631   2.887029   2.253310   3.988289   4.271230
    34  H    6.140660   3.844033   2.722429   4.166380   5.230053
    35  O    3.621447   2.379619   5.058732   6.994431   1.377687
    36  H    3.701313   3.184451   5.873889   7.674142   1.925672
                   31         32         33         34         35
    31  C    0.000000
    32  H    1.088824   0.000000
    33  O    5.254058   6.258322   0.000000
    34  H    6.218062   7.226748   0.969154   0.000000
    35  O    2.371554   2.562791   4.948978   5.861674   0.000000
    36  H    2.349144   2.105149   5.861470   6.789058   0.969155
                   36
    36  H    0.000000
 Stoichiometry    C20H14O2
 Framework group  C1[X(C20H14O2)]
 Deg. of freedom   102
 Full point group                 C1      NOp   1
 Largest Abelian subgroup         C1      NOp   1
 Largest concise Abelian subgroup C1      NOp   1
                         Standard orientation:                         
 ---------------------------------------------------------------------
 Center     Atomic      Atomic             Coordinates (Angstroms)
 Number     Number       Type             X           Y           Z
 ---------------------------------------------------------------------
      1          6           0       -3.131365    1.824923    1.195616
      2          6           0       -1.946151    1.344387    0.678689
      3          6           0       -1.860367    0.116928   -0.038926
      4          6           0       -3.054013   -0.685309    0.013130
      5          6           0       -4.279983   -0.146951    0.487542
      6          6           0       -4.336034    1.107707    1.044792
      7          1           0       -3.126782    2.761294    1.748099
      8          1           0       -1.046420    1.900618    0.888705
      9          6           0       -0.635575   -0.406493   -0.680007
     10          6           0       -2.969685   -2.073958   -0.254902
     11          1           0       -5.164675   -0.778709    0.450045
     12          1           0       -5.271824    1.510398    1.422199
     13          6           0       -1.751545   -2.628406   -0.515895
     14          6           0       -0.603072   -1.810254   -0.680279
     15          1           0       -3.863037   -2.689737   -0.190949
     16          1           0       -1.647049   -3.702145   -0.663207
     17          6           0        4.335635   -1.108218    1.044873
     18          6           0        4.279892    0.146469    0.487669
     19          6           0        3.054062    0.685120    0.013232
     20          6           0        1.860282   -0.116865   -0.038953
     21          6           0        1.945746   -1.344370    0.678631
     22          6           0        3.130800   -1.825172    1.195663
     23          1           0        3.863406    2.689457   -0.190718
     24          1           0        5.271327   -1.511131    1.422287
     25          1           0        5.164735    0.778022    0.450237
     26          6           0        2.969954    2.073824   -0.254650
     27          6           0        0.635596    0.406846   -0.680103
     28          1           0        1.045815   -1.900348    0.888587
     29          1           0        3.125987   -2.761524    1.748172
     30          6           0        0.603227    1.810580   -0.679834
     31          6           0        1.751883    2.628488   -0.515476
     32          1           0        1.647564    3.702255   -0.662719
     33          8           0        0.499477   -2.423274   -1.234022
     34          1           0        0.337902   -3.377452   -1.285957
     35          8           0       -0.498960    2.423942   -1.233902
     36          1           0       -0.336797    3.377997   -1.286275
 ---------------------------------------------------------------------
 Rotational constants (GHZ):           0.5206077           0.2322836           0.1804138
 Standard basis: 6-31G(d) (6D, 7F)
 There are   358 symmetry adapted cartesian basis functions of A   symmetry.
 There are   358 symmetry adapted basis functions of A   symmetry.
   358 basis functions,   672 primitive gaussians,   358 cartesian basis functions
    75 alpha electrons       75 beta electrons
       nuclear repulsion energy      1676.9803482234 Hartrees.
 NAtoms=   36 NActive=   36 NUniq=   36 SFac= 1.00D+00 NAtFMM=   60 NAOKFM=F Big=F
 Integral buffers will be    131072 words long.
 Regular integral format.
 Two-electron integral symmetry is turned on.
 One-electron integrals computed using PRISM.
 NBasis=   358 RedAO= T EigKep=  3.45D-04  NBF=   358
 NBsUse=   358 1.00D-06 EigRej= -1.00D+00 NBFU=   358
 ExpMin= 1.61D-01 ExpMax= 5.48D+03 ExpMxC= 8.25D+02 IAcc=3 IRadAn=         5 AccDes= 0.00D+00
 Harris functional with IExCor=  402 and IRadAn=       5 diagonalized for initial guess.
 HarFok:  IExCor=  402 AccDes= 0.00D+00 IRadAn=         5 IDoV= 1 UseB2=F ITyADJ=14
 ICtDFT=  3500011 ScaDFX=  1.000000  1.000000  1.000000  1.000000
 FoFCou: FMM=F IPFlag=           0 FMFlag=      100000 FMFlg1=           0
         NFxFlg=           0 DoJE=T BraDBF=F KetDBF=T FulRan=T
         wScrn=  0.000000 ICntrl=       500 IOpCl=  0 I1Cent=   200000004 NGrid=           0
         NMat0=    1 NMatS0=      1 NMatT0=    0 NMatD0=    1 NMtDS0=    0 NMtDT0=    0
 Petite list used in FoFCou.
 Requested convergence on RMS density matrix=1.00D-08 within 128 cycles.
 Requested convergence on MAX density matrix=1.00D-06.
 Requested convergence on             energy=1.00D-06.
 No special actions if energy rises.
 Integral accuracy reduced to 1.0D-05 until final iterations.
 Initial convergence to 1.0D-05 achieved.  Increase integral accuracy.
 SCF Done:  E(RB3LYP) =  -920.955721819     A.U. after   14 cycles
            NFock= 14  Conv=0.79D-08     -V/T= 2.0095
 DoSCS=F DFT=T ScalE2(SS,OS)=  1.000000  1.000000
 ExpMin= 1.61D-01 ExpMax= 5.48D+03 ExpMxC= 8.25D+02 IAcc=3 IRadAn=         5 AccDes= 0.00D+00
 HarFok:  IExCor=  205 AccDes= 0.00D+00 IRadAn=         5 IDoV=-2 UseB2=F ITyADJ=14
 ICtDFT= 12500011 ScaDFX=  1.000000  1.000000  1.000000  1.000000
 GSVD:  LWork=        -660 too small for GESVD, short by        2750 words or        2750 for optimal perf.
 Range of M.O.s used for correlation:    23   358
 NBasis=   358 NAE=    75 NBE=    75 NFC=    22 NFV=     0
 NROrb=    336 NOA=    53 NOB=    53 NVA=   283 NVB=   283
 Orbital symmetries:
       Occupied  (A) (A) (A) (A) (A) (A) (A) (A) (A) (A) (A) (A)
                 (A) (A) (A) (A) (A) (A) (A) (A) (A) (A) (A) (A)
                 (A) (A) (A) (A) (A) (A) (A) (A) (A) (A) (A) (A)
                 (A) (A) (A) (A) (A) (A) (A) (A) (A) (A) (A) (A)
                 (A) (A) (A) (A) (A) (A) (A) (A) (A) (A) (A) (A)
                 (A) (A) (A) (A) (A) (A) (A) (A) (A) (A) (A) (A)
                 (A) (A) (A)
       Virtual   (A) (A) (A) (A) (A) (A) (A) (A) (A) (A) (A) (A)
                 (A) (A) (A) (A) (A) (A) (A) (A) (A) (A) (A) (A)
                 (A) (A) (A) (A) (A) (A) (A) (A) (A) (A) (A) (A)
                 (A) (A) (A) (A) (A) (A) (A) (A) (A) (A) (A) (A)
                 (A) (A) (A) (A) (A) (A) (A) (A) (A) (A) (A) (A)
                 (A) (A) (A) (A) (A) (A) (A) (A) (A) (A) (A) (A)
                 (A) (A) (A) (A) (A) (A) (A) (A) (A) (A) (A) (A)
                 (A) (A) (A) (A) (A) (A) (A) (A) (A) (A) (A) (A)
                 (A) (A) (A) (A) (A) (A) (A) (A) (A) (A) (A) (A)
                 (A) (A) (A) (A) (A) (A) (A) (A) (A) (A) (A) (A)
                 (A) (A) (A) (A) (A) (A) (A) (A) (A) (A) (A) (A)
                 (A) (A) (A) (A) (A) (A) (A) (A) (A) (A) (A) (A)
                 (A) (A) (A) (A) (A) (A) (A) (A) (A) (A) (A) (A)
                 (A) (A) (A) (A) (A) (A) (A) (A) (A) (A) (A) (A)
                 (A) (A) (A) (A) (A) (A) (A) (A) (A) (A) (A) (A)
                 (A) (A) (A) (A) (A) (A) (A) (A) (A) (A) (A) (A)
                 (A) (A) (A) (A) (A) (A) (A) (A) (A) (A) (A) (A)
                 (A) (A) (A) (A) (A) (A) (A) (A) (A) (A) (A) (A)
                 (A) (A) (A) (A) (A) (A) (A) (A) (A) (A) (A) (A)
                 (A) (A) (A) (A) (A) (A) (A) (A) (A) (A) (A) (A)
                 (A) (A) (A) (A) (A) (A) (A) (A) (A) (A) (A) (A)
                 (A) (A) (A) (A) (A) (A) (A) (A) (A) (A) (A) (A)
                 (A) (A) (A) (A) (A) (A) (A) (A) (A) (A) (A) (A)
                 (A) (A) (A) (A) (A) (A) (A)
    64 initial guesses have been made.
 Convergence on wavefunction:    0.001000000000000
 Iteration     1 Dimension    64 NMult     0 NNew     64
 CISAX will form    64 AO SS matrices at one time.
 New state      3 was old state      4
 New state      4 was old state      5
 New state      5 was old state      3
 New state      6 was old state      8
 New state      8 was old state      9
 New state      9 was old state     13
 New state     10 was old state     11
 New state     11 was old state     12
 New state     12 was old state     14
 New state     13 was old state     16
 New state     14 was old state     15
 New state     15 was old state     19
 New state     16 was old state     20
 Iteration     2 Dimension    96 NMult    64 NNew     32
 Iteration     3 Dimension   128 NMult    96 NNew     32
 Iteration     4 Dimension   160 NMult   128 NNew     32
 Iteration     5 Dimension   174 NMult   160 NNew     14
 Iteration     6 Dimension   178 NMult   174 NNew      4
 ***********************************************************************
 Excited states from <AA,BB:AA,BB> singles matrix:
 ***********************************************************************
 
 Ground to excited state transition densities written to RWF  633
 Ground to excited state transition electric dipole moments (Au):
       state          X           Y           Z        Dip. S.      Osc.
         1        -1.6156     -0.7024     -0.0001      3.1035      0.2525
         2         0.0009      0.0002     -0.1023      0.0105      0.0009
         3         0.4497     -0.3434      0.0002      0.3202      0.0312
         4        -0.0002      0.0005      0.1117      0.0125      0.0012
         5         0.0002      0.0000     -0.1173      0.0138      0.0014
         6         0.4952     -0.2584      0.0000      0.3120      0.0339
         7        -0.0009      0.0010     -0.4033      0.1627      0.0183
         8        -0.5172      0.0209      0.0004      0.2679      0.0307
         9         0.4268     -0.7902     -0.0005      0.8066      0.0938
        10        -0.0011      0.0015      0.0259      0.0007      0.0001
        11         0.1997     -0.1937      0.0001      0.0774      0.0095
        12        -1.0584      0.0802      0.0000      1.1267      0.1449
        13         0.0004     -0.0023      0.7560      0.5715      0.0758
        14         0.0519      0.6351      0.0019      0.4060      0.0544
        15        -0.0007     -0.0015     -0.1532      0.0235      0.0032
        16        -0.0005      0.0010     -0.4295      0.1845      0.0251
 Ground to excited state transition velocity dipole moments (Au):
       state          X           Y           Z        Dip. S.      Osc.
         1         0.2053      0.0877      0.0000      0.0498      0.2723
         2        -0.0001     -0.0000      0.0134      0.0002      0.0009
         3        -0.0627      0.0488     -0.0000      0.0063      0.0289
         4         0.0000     -0.0001     -0.0115      0.0001      0.0006
         5        -0.0000     -0.0000      0.0172      0.0003      0.0013
         6        -0.0835      0.0364     -0.0000      0.0083      0.0339
         7         0.0001     -0.0002      0.0716      0.0051      0.0202
         8         0.0959     -0.0086     -0.0001      0.0093      0.0360
         9        -0.0640      0.1373      0.0001      0.0229      0.0877
        10         0.0002     -0.0003     -0.0052      0.0000      0.0001
        11        -0.0339      0.0452     -0.0000      0.0032      0.0116
        12         0.1961     -0.0124      0.0000      0.0386      0.1334
        13        -0.0001      0.0004     -0.1529      0.0234      0.0783
        14        -0.0129     -0.1253     -0.0004      0.0159      0.0526
        15         0.0001      0.0003      0.0339      0.0012      0.0038
        16         0.0001     -0.0002      0.0907      0.0082      0.0269
 Ground to excited state transition magnetic dipole moments (Au):
       state          X           Y           Z
         1         0.2512     -0.1827     -0.0005
         2        -0.0000      0.0001     -1.0326
         3        -0.1062      0.2702      0.0006
         4         0.0001     -0.0003      0.5499
         5         0.0000      0.0001     -0.2196
         6         0.1642     -0.0056     -0.0000
         7         0.0003     -0.0004     -1.4515
         8         0.1305     -0.1643      0.0013
         9        -0.2215      0.4224     -0.0013
        10         0.0005     -0.0012      0.1673
        11        -0.0520      0.3569      0.0004
        12         0.3288     -0.8403      0.0003
        13        -0.0005      0.0008      2.1373
        14         0.1201     -0.2568      0.0050
        15        -0.0002      0.0006     -0.3018
        16         0.0003     -0.0004     -0.9516
 Ground to excited state transition velocity quadrupole moments (Au):
       state          XX          YY          ZZ          XY          XZ          YZ
         1        -0.0002      0.0001     -0.0000     -0.0001      0.1717     -0.1951
         2        -0.1636     -0.1867      0.0281     -0.2104     -0.0001      0.0001
         3        -0.0001      0.0002     -0.0000      0.0002     -0.1272      0.0131
         4         0.0777      0.1630     -0.0249      0.2933      0.0001      0.0000
         5         0.9654      0.0119     -0.0271      0.2356     -0.0000      0.0000
         6         0.0000      0.0001     -0.0000      0.0002     -0.1021     -0.0444
         7         0.5856     -0.3173      0.0296     -0.4771      0.0003      0.0000
         8        -0.0003      0.0004     -0.0001      0.0006      0.1371     -0.0820
         9         0.0008     -0.0002      0.0000     -0.0005     -0.2128     -0.0089
        10        -0.0490      0.1182      0.0177      0.0672      0.0006     -0.0001
        11        -0.0002      0.0002      0.0000      0.0002     -0.0748      0.0766
        12        -0.0003      0.0000     -0.0000      0.0001      0.3287     -0.2981
        13        -1.9682      0.7080     -0.0901      1.1314     -0.0008      0.0001
        14        -0.0049      0.0020     -0.0002      0.0030      0.2015     -0.0411
        15         0.7500      0.0411     -0.0073      0.0297     -0.0003      0.0002
        16         1.4638     -0.2871      0.0129     -0.3574      0.0004      0.0000
 <0|del|b> * <b|rxdel|0> + <0|del|b> * <b|delr+rdel|0>
 Rotatory Strengths (R) in cgs (10**-40 erg-esu-cm/Gauss)
       state          XX          YY          ZZ    R(velocity)    E-M Angle
         1       -90.0834     33.3732    262.6859     68.6586       59.17
         2       -44.3519    -29.3344      0.0000    -24.5621      179.44
         3        46.9827     14.1464     35.0423     32.0571       30.65
         4       -23.2388     -7.0728      0.0000    -10.1039       90.00
         5         0.6294    -17.9453     -0.0000     -5.7720       90.00
         6         7.6178    -21.6580    -46.2275    -20.0892      158.36
         7      -289.1873   -146.1062      0.0001   -145.0978      179.81
         8         5.3109      9.5775     42.4530     19.1138       46.44
         9       176.7858     29.8823     85.9226     97.5303        2.69
        10        -2.3880     -1.0198      0.0006     -1.1357       90.00
        11        37.6438     -1.6041     33.0042     23.0146       28.56
        12        26.6544     11.0459    237.0086     91.5696       65.00
        13      -887.9303   -273.2477      0.0001   -387.0593      179.81
        14       100.9597     -1.7994      8.5079     35.8894       30.99
        15       -16.1732    -19.7004      0.0001    -11.9579      179.36
        16      -205.7435    -93.3894      0.0000    -99.7110      179.83
 1/2[<0|r|b>*<b|rxdel|0> + (<0|rxdel|b>*<b|r|0>)*]
 Rotatory Strengths (R) in cgs (10**-40 erg-esu-cm/Gauss)
       state          XX          YY          ZZ     R(length)
         1       286.9841    -90.7435     -0.0000     65.4135
         2         0.0000     -0.0000    -74.7372    -24.9124
         3        33.7850     65.6295     -0.0001     33.1381
         4         0.0000      0.0001    -43.4402    -14.4800
         5        -0.0000     -0.0000    -18.2116     -6.0705
         6       -57.5009     -1.0169      0.0000    -19.5059
         7         0.0002      0.0002   -413.9928   -137.9975
         8        47.7180      2.4278     -0.0003     16.7152
         9        66.8660    236.0484     -0.0004    100.9713
        10         0.0004      0.0013     -3.0594     -1.0192
        11         7.3500     48.8783     -0.0000     18.7428
        12       246.1114     47.6526     -0.0000     97.9213
        13         0.0001      0.0014  -1142.6184   -380.8723
        14        -4.4079    115.3083     -0.0068     36.9645
        15        -0.0001      0.0007    -32.6981    -10.8992
        16         0.0001      0.0003   -289.0461    -96.3486
  1/2[<0|del|b>*<b|r|0> + (<0|r|b>*<b|del|0>)*] (Au)
       state          X           Y           Z        Dip. S.   Osc.(frdel)
         1        -0.3317     -0.0616     -0.0000      0.3933      0.2622
         2        -0.0000     -0.0000     -0.0014      0.0014      0.0009
         3        -0.0282     -0.0168     -0.0000      0.0450      0.0300
         4        -0.0000     -0.0000     -0.0013      0.0013      0.0009
         5        -0.0000     -0.0000     -0.0020      0.0020      0.0013
         6        -0.0413     -0.0094     -0.0000      0.0508      0.0338
         7        -0.0000     -0.0000     -0.0289      0.0289      0.0192
         8        -0.0496     -0.0002     -0.0000      0.0498      0.0332
         9        -0.0273     -0.1085     -0.0000      0.1358      0.0905
        10        -0.0000     -0.0000     -0.0001      0.0001      0.0001
        11        -0.0068     -0.0088     -0.0000      0.0155      0.0104
        12        -0.2076     -0.0010      0.0000      0.2086      0.1390
        13        -0.0000     -0.0000     -0.1156      0.1156      0.0771
        14        -0.0007     -0.0796     -0.0000      0.0803      0.0535
        15        -0.0000     -0.0000     -0.0052      0.0052      0.0035
        16        -0.0000     -0.0000     -0.0390      0.0390      0.0260

 Excitation energies and oscillator strengths:
 
 Excited State   1:      Singlet-A      3.3202 eV  373.42 nm  f=0.2525  <S**2>=0.000
      75 -> 76         0.69969
 This state for optimization and/or second-order correction.
 Total Energy, E(TD-HF/TD-DFT) =  -920.833705859    
 Copying the excited state density for this state as the 1-particle RhoCI density.
 
 Excited State   2:      Singlet-A      3.6259 eV  341.94 nm  f=0.0009  <S**2>=0.000
      74 -> 76         0.67609
      75 -> 77         0.14047
      75 -> 79        -0.10604
 
 Excited State   3:      Singlet-A      3.9737 eV  312.01 nm  f=0.0312  <S**2>=0.000
      73 -> 76         0.58759
      74 -> 79        -0.10112
      75 -> 78        -0.35741
 
 Excited State   4:      Singlet-A      4.0238 eV  308.12 nm  f=0.0012  <S**2>=0.000
      72 -> 76        -0.44363
      75 -> 77         0.47602
      75 -> 79         0.23729
 
 Excited State   5:      Singlet-A      4.1949 eV  295.56 nm  f=0.0014  <S**2>=0.000
      72 -> 76         0.42449
      74 -> 76        -0.16007
      74 -> 78        -0.12078
      75 -> 77         0.48053
      75 -> 79        -0.18399
 
 Excited State   6:      Singlet-A      4.4408 eV  279.19 nm  f=0.0339  <S**2>=0.000
      71 -> 76         0.30047
      72 -> 77         0.16198
      73 -> 76         0.26453
      74 -> 77         0.47502
      75 -> 78         0.26760
 
 Excited State   7:      Singlet-A      4.5928 eV  269.95 nm  f=0.0183  <S**2>=0.000
      72 -> 76         0.28926
      73 -> 77         0.32035
      75 -> 79         0.54515
 
 Excited State   8:      Singlet-A      4.6705 eV  265.46 nm  f=0.0307  <S**2>=0.000
      71 -> 76         0.62174
      74 -> 77        -0.24863
      75 -> 78        -0.17008
 
 Excited State   9:      Singlet-A      4.7467 eV  261.20 nm  f=0.0938  <S**2>=0.000
      72 -> 77         0.14154
      73 -> 76         0.17251
      74 -> 77        -0.38967
      74 -> 79        -0.27460
      75 -> 78         0.44206
 
 Excited State  10:      Singlet-A      4.8703 eV  254.57 nm  f=0.0001  <S**2>=0.000
      72 -> 78        -0.11400
      73 -> 77         0.36887
      74 -> 78         0.53657
      75 -> 79        -0.20049
 
 Excited State  11:      Singlet-A      4.9926 eV  248.34 nm  f=0.0095  <S**2>=0.000
      72 -> 77         0.49071
      74 -> 77        -0.15263
      74 -> 79         0.45644
 
 Excited State  12:      Singlet-A      5.2490 eV  236.21 nm  f=0.1449  <S**2>=0.000
      72 -> 77         0.10776
      74 -> 79        -0.17177
      75 -> 80         0.65641
 
 Excited State  13:      Singlet-A      5.4149 eV  228.97 nm  f=0.0758  <S**2>=0.000
      71 -> 77         0.21733
      72 -> 76        -0.10824
      72 -> 78        -0.12758
      73 -> 77         0.41590
      73 -> 79         0.29501
      74 -> 78        -0.30324
      75 -> 79        -0.18417
      75 -> 81         0.11440
 
 Excited State  14:      Singlet-A      5.4733 eV  226.52 nm  f=0.0544  <S**2>=0.000
      72 -> 77         0.12889
      72 -> 79        -0.29797
      73 -> 78         0.60355
 
 Excited State  15:      Singlet-A      5.4898 eV  225.84 nm  f=0.0032  <S**2>=0.000
      71 -> 77         0.40224
      71 -> 79         0.13520
      72 -> 78         0.47608
      74 -> 78         0.16429
      74 -> 80        -0.10707
      75 -> 81         0.16085
 
 Excited State  16:      Singlet-A      5.5515 eV  223.34 nm  f=0.0251  <S**2>=0.000
      70 -> 76         0.22930
      71 -> 79         0.12869
      72 -> 78        -0.16804
      73 -> 77        -0.12092
      73 -> 79         0.52254
      74 -> 78         0.19082
      74 -> 80        -0.20294
      75 -> 81        -0.13128
 SavETr:  write IOETrn=   770 NScale= 10 NData=  16 NLR=1 NState=   16 LETran=     298.

 **********************************************************************

            Population analysis using the SCF Density.

 **********************************************************************

 Orbital symmetries:
       Occupied  (A) (A) (A) (A) (A) (A) (A) (A) (A) (A) (A) (A)
                 (A) (A) (A) (A) (A) (A) (A) (A) (A) (A) (A) (A)
                 (A) (A) (A) (A) (A) (A) (A) (A) (A) (A) (A) (A)
                 (A) (A) (A) (A) (A) (A) (A) (A) (A) (A) (A) (A)
                 (A) (A) (A) (A) (A) (A) (A) (A) (A) (A) (A) (A)
                 (A) (A) (A) (A) (A) (A) (A) (A) (A) (A) (A) (A)
                 (A) (A) (A)
       Virtual   (A) (A) (A) (A) (A) (A) (A) (A) (A) (A) (A) (A)
                 (A) (A) (A) (A) (A) (A) (A) (A) (A) (A) (A) (A)
                 (A) (A) (A) (A) (A) (A) (A) (A) (A) (A) (A) (A)
                 (A) (A) (A) (A) (A) (A) (A) (A) (A) (A) (A) (A)
                 (A) (A) (A) (A) (A) (A) (A) (A) (A) (A) (A) (A)
                 (A) (A) (A) (A) (A) (A) (A) (A) (A) (A) (A) (A)
                 (A) (A) (A) (A) (A) (A) (A) (A) (A) (A) (A) (A)
                 (A) (A) (A) (A) (A) (A) (A) (A) (A) (A) (A) (A)
                 (A) (A) (A) (A) (A) (A) (A) (A) (A) (A) (A) (A)
                 (A) (A) (A) (A) (A) (A) (A) (A) (A) (A) (A) (A)
                 (A) (A) (A) (A) (A) (A) (A) (A) (A) (A) (A) (A)
                 (A) (A) (A) (A) (A) (A) (A) (A) (A) (A) (A) (A)
                 (A) (A) (A) (A) (A) (A) (A) (A) (A) (A) (A) (A)
                 (A) (A) (A) (A) (A) (A) (A) (A) (A) (A) (A) (A)
                 (A) (A) (A) (A) (A) (A) (A) (A) (A) (A) (A) (A)
                 (A) (A) (A) (A) (A) (A) (A) (A) (A) (A) (A) (A)
                 (A) (A) (A) (A) (A) (A) (A) (A) (A) (A) (A) (A)
                 (A) (A) (A) (A) (A) (A) (A) (A) (A) (A) (A) (A)
                 (A) (A) (A) (A) (A) (A) (A) (A) (A) (A) (A) (A)
                 (A) (A) (A) (A) (A) (A) (A) (A) (A) (A) (A) (A)
                 (A) (A) (A) (A) (A) (A) (A) (A) (A) (A) (A) (A)
                 (A) (A) (A) (A) (A) (A) (A) (A) (A) (A) (A) (A)
                 (A) (A) (A) (A) (A) (A) (A) (A) (A) (A) (A) (A)
                 (A) (A) (A) (A) (A) (A) (A)
 The electronic state is 1-A.
 Alpha  occ. eigenvalues --  -19.17202 -19.17202 -10.25059 -10.25059 -10.20049
 Alpha  occ. eigenvalues --  -10.20025 -10.19715 -10.19714 -10.19353 -10.19353
 Alpha  occ. eigenvalues --  -10.19248 -10.19248 -10.18925 -10.18925 -10.18191
 Alpha  occ. eigenvalues --  -10.18190 -10.17979 -10.17979 -10.17928 -10.17928
 Alpha  occ. eigenvalues --  -10.17560 -10.17559  -1.05537  -1.05456  -0.86819
 Alpha  occ. eigenvalues --   -0.86003  -0.81376  -0.80914  -0.78725  -0.75020
 Alpha  occ. eigenvalues --   -0.72896  -0.72847  -0.71828  -0.70625  -0.63135
 Alpha  occ. eigenvalues --   -0.62696  -0.60880  -0.60805  -0.59558  -0.56718
 Alpha  occ. eigenvalues --   -0.54821  -0.54401  -0.51838  -0.50172  -0.48976
 Alpha  occ. eigenvalues --   -0.48681  -0.46354  -0.46295  -0.44695  -0.43650
 Alpha  occ. eigenvalues --   -0.42747  -0.42211  -0.41813  -0.41397  -0.40935
 Alpha  occ. eigenvalues --   -0.39719  -0.39014  -0.38706  -0.38525  -0.36847
 Alpha  occ. eigenvalues --   -0.36135  -0.35902  -0.35098  -0.33550  -0.33335
 Alpha  occ. eigenvalues --   -0.32939  -0.31817  -0.30516  -0.29562  -0.28588
 Alpha  occ. eigenvalues --   -0.24757  -0.22586  -0.22224  -0.20844  -0.18860
 Alpha virt. eigenvalues --   -0.05140  -0.01801  -0.00199   0.00060   0.02911
 Alpha virt. eigenvalues --    0.04936   0.06920   0.07080   0.09286   0.09291
 Alpha virt. eigenvalues --    0.10885   0.11210   0.12102   0.12286   0.14265
 Alpha virt. eigenvalues --    0.15381   0.17337   0.17348   0.17940   0.17968
 Alpha virt. eigenvalues --    0.19631   0.20027   0.20747   0.22021   0.23280
 Alpha virt. eigenvalues --    0.24791   0.24930   0.27076   0.27325   0.29258
 Alpha virt. eigenvalues --    0.29554   0.31395   0.31806   0.33653   0.33794
 Alpha virt. eigenvalues --    0.35051   0.36010   0.36783   0.37871   0.39056
 Alpha virt. eigenvalues --    0.40109   0.47435   0.48175   0.48547   0.50279
 Alpha virt. eigenvalues --    0.50604   0.51733   0.52400   0.52654   0.53499
 Alpha virt. eigenvalues --    0.53896   0.54942   0.55257   0.55453   0.55617
 Alpha virt. eigenvalues --    0.56748   0.57342   0.57713   0.58066   0.59405
 Alpha virt. eigenvalues --    0.59587   0.59668   0.60251   0.60305   0.61187
 Alpha virt. eigenvalues --    0.61331   0.62023   0.62031   0.62886   0.63001
 Alpha virt. eigenvalues --    0.63116   0.63655   0.64393   0.64627   0.64644
 Alpha virt. eigenvalues --    0.65254   0.66209   0.67840   0.68625   0.69173
 Alpha virt. eigenvalues --    0.70937   0.71840   0.73592   0.74189   0.78260
 Alpha virt. eigenvalues --    0.78602   0.78790   0.81398   0.82444   0.82806
 Alpha virt. eigenvalues --    0.84169   0.84412   0.84677   0.84705   0.85715
 Alpha virt. eigenvalues --    0.86443   0.87072   0.87343   0.88115   0.88764
 Alpha virt. eigenvalues --    0.89664   0.89889   0.91180   0.93053   0.93514
 Alpha virt. eigenvalues --    0.94272   0.94481   0.95768   0.95776   0.97764
 Alpha virt. eigenvalues --    0.98118   0.99714   1.00369   1.00895   1.02341
 Alpha virt. eigenvalues --    1.03599   1.03897   1.04711   1.05317   1.07154
 Alpha virt. eigenvalues --    1.07490   1.10030   1.10236   1.11776   1.12980
 Alpha virt. eigenvalues --    1.13335   1.14162   1.17335   1.18538   1.22232
 Alpha virt. eigenvalues --    1.23355   1.23917   1.24994   1.25263   1.28546
 Alpha virt. eigenvalues --    1.29255   1.29876   1.30580   1.31366   1.33292
 Alpha virt. eigenvalues --    1.34366   1.37343   1.37423   1.39871   1.41577
 Alpha virt. eigenvalues --    1.44533   1.44636   1.45611   1.46679   1.47464
 Alpha virt. eigenvalues --    1.47767   1.48927   1.50330   1.51019   1.52219
 Alpha virt. eigenvalues --    1.52695   1.53154   1.57354   1.59776   1.59783
 Alpha virt. eigenvalues --    1.61062   1.63487   1.69902   1.71412   1.74065
 Alpha virt. eigenvalues --    1.75110   1.75154   1.75793   1.78131   1.79082
 Alpha virt. eigenvalues --    1.79784   1.80341   1.82148   1.82469   1.82628
 Alpha virt. eigenvalues --    1.84757   1.85685   1.85859   1.87767   1.87942
 Alpha virt. eigenvalues --    1.90355   1.90368   1.91099   1.91801   1.93648
 Alpha virt. eigenvalues --    1.94509   1.96449   1.97782   1.99031   1.99391
 Alpha virt. eigenvalues --    2.01860   2.02630   2.03843   2.04481   2.05943
 Alpha virt. eigenvalues --    2.05980   2.07015   2.08927   2.12473   2.14298
 Alpha virt. eigenvalues --    2.14386   2.15292   2.17909   2.19876   2.21413
 Alpha virt. eigenvalues --    2.21707   2.23662   2.23836   2.28056   2.28307
 Alpha virt. eigenvalues --    2.29540   2.31730   2.31962   2.32784   2.33189
 Alpha virt. eigenvalues --    2.34836   2.35216   2.35856   2.36544   2.40668
 Alpha virt. eigenvalues --    2.41078   2.41585   2.42657   2.48754   2.49512
 Alpha virt. eigenvalues --    2.51052   2.54548   2.56945   2.59802   2.59832
 Alpha virt. eigenvalues --    2.61329   2.62003   2.63823   2.64403   2.65906
 Alpha virt. eigenvalues --    2.67353   2.67633   2.69203   2.71077   2.72878
 Alpha virt. eigenvalues --    2.75357   2.75957   2.77962   2.81980   2.82872
 Alpha virt. eigenvalues --    2.83817   2.86152   2.86821   2.87909   2.92326
 Alpha virt. eigenvalues --    2.92552   2.96994   3.02667   3.04660   3.04987
 Alpha virt. eigenvalues --    3.07561   3.16578   3.31986   3.36192   3.44169
 Alpha virt. eigenvalues --    3.46333   3.94627   4.01933   4.09974   4.10422
 Alpha virt. eigenvalues --    4.10985   4.11754   4.13970   4.14603   4.16128
 Alpha virt. eigenvalues --    4.17055   4.21087   4.25211   4.31079   4.32936
 Alpha virt. eigenvalues --    4.40508   4.40774   4.43550   4.48491   4.55303
 Alpha virt. eigenvalues --    4.62277   4.75500   4.85248
          Condensed to atoms (all electrons):
               1          2          3          4          5          6
     1  C    4.905374   0.532015  -0.017604  -0.036672  -0.030744   0.504834
     2  C    0.532015   5.029885   0.461080  -0.030467  -0.059297  -0.021952
     3  C   -0.017604   0.461080   4.906949   0.462523  -0.039919  -0.033662
     4  C   -0.036672  -0.030467   0.462523   4.735074   0.463638  -0.012385
     5  C   -0.030744  -0.059297  -0.039919   0.463638   5.056193   0.530479
     6  C    0.504834  -0.021952  -0.033662  -0.012385   0.530479   4.893609
     7  H    0.357613  -0.039674   0.003784   0.000825   0.004802  -0.044617
     8  H   -0.043003   0.344758  -0.038325   0.005165   0.000701   0.004911
     9  C    0.006178  -0.064279   0.372702  -0.020022   0.008664  -0.000334
    10  C    0.000072   0.011430  -0.036688   0.454308  -0.066574   0.007037
    11  H    0.004655   0.000504   0.004313  -0.044571   0.355026  -0.045081
    12  H   -0.041141   0.004449   0.000882   0.003194  -0.038555   0.355336
    13  C    0.000046   0.000346  -0.049928  -0.012762   0.008109  -0.000412
    14  C   -0.000117   0.004773   0.000152  -0.046240  -0.000033   0.000024
    15  H   -0.000006  -0.000185   0.005198  -0.040097  -0.008571   0.000204
    16  H   -0.000000   0.000015   0.000616   0.003265  -0.000209   0.000004
    17  C    0.000000  -0.000000  -0.000000   0.000000  -0.000000  -0.000000
    18  C   -0.000000   0.000001  -0.000001  -0.000000   0.000000  -0.000000
    19  C   -0.000001   0.000014   0.000003  -0.000001  -0.000000   0.000000
    20  C    0.000019  -0.000047  -0.000633   0.000003  -0.000001  -0.000000
    21  C   -0.000000   0.000004  -0.000048   0.000014   0.000001  -0.000000
    22  C   -0.000000  -0.000000   0.000019  -0.000001  -0.000000   0.000000
    23  H   -0.000000  -0.000000   0.000000   0.000000  -0.000000   0.000000
    24  H   -0.000000  -0.000000   0.000000  -0.000000  -0.000000   0.000000
    25  H   -0.000000   0.000000  -0.000000   0.000000  -0.000000   0.000000
    26  C    0.000001  -0.000052  -0.000003   0.000000  -0.000000   0.000000
    27  C    0.001120  -0.015977  -0.060576   0.006497  -0.000106  -0.000030
    28  H    0.000002  -0.000010  -0.000116  -0.000066  -0.000002   0.000000
    29  H   -0.000000  -0.000000  -0.000000   0.000000   0.000000   0.000000
    30  C    0.000074   0.002499  -0.010241   0.000176   0.000001  -0.000006
    31  C   -0.000067  -0.000765   0.000871   0.000004  -0.000000   0.000001
    32  H    0.000001   0.000041  -0.000006  -0.000000   0.000000  -0.000000
    33  O    0.000000  -0.000063   0.001856   0.000360   0.000000  -0.000000
    34  H   -0.000000   0.000006  -0.000062  -0.000074  -0.000001   0.000000
    35  O   -0.001857  -0.012401  -0.006167  -0.000531   0.000014  -0.000006
    36  H    0.000183   0.001073   0.000308   0.000018  -0.000002  -0.000002
               7          8          9         10         11         12
     1  C    0.357613  -0.043003   0.006178   0.000072   0.004655  -0.041141
     2  C   -0.039674   0.344758  -0.064279   0.011430   0.000504   0.004449
     3  C    0.003784  -0.038325   0.372702  -0.036688   0.004313   0.000882
     4  C    0.000825   0.005165  -0.020022   0.454308  -0.044571   0.003194
     5  C    0.004802   0.000701   0.008664  -0.066574   0.355026  -0.038555
     6  C   -0.044617   0.004911  -0.000334   0.007037  -0.045081   0.355336
     7  H    0.607773  -0.006722  -0.000138   0.000006  -0.000211  -0.004832
     8  H   -0.006722   0.602770  -0.011876  -0.000195   0.000019  -0.000198
     9  C   -0.000138  -0.011876   5.177210  -0.044617  -0.000137   0.000013
    10  C    0.000006  -0.000195  -0.044617   5.053097  -0.009238  -0.000205
    11  H   -0.000211   0.000019  -0.000137  -0.009238   0.609042  -0.005414
    12  H   -0.004832  -0.000198   0.000013  -0.000205  -0.005414   0.601696
    13  C    0.000000   0.000018  -0.033345   0.483397   0.000380   0.000004
    14  C    0.000001  -0.000299   0.441034  -0.008368   0.000006  -0.000000
    15  H   -0.000000   0.000004   0.000159   0.350546   0.006737  -0.000014
    16  H    0.000000  -0.000000   0.004273  -0.027199  -0.000010  -0.000000
    17  C    0.000000   0.000000  -0.000030   0.000000   0.000000   0.000000
    18  C    0.000000  -0.000002  -0.000106  -0.000000  -0.000000  -0.000000
    19  C    0.000000  -0.000066   0.006496   0.000000   0.000000  -0.000000
    20  C   -0.000000  -0.000116  -0.060542  -0.000003  -0.000000   0.000000
    21  C   -0.000000  -0.000010  -0.015970  -0.000052   0.000000  -0.000000
    22  C   -0.000000   0.000002   0.001120   0.000001  -0.000000  -0.000000
    23  H   -0.000000  -0.000002   0.000007   0.000000  -0.000000   0.000000
    24  H   -0.000000  -0.000000   0.000000   0.000000  -0.000000   0.000000
    25  H    0.000000   0.000000   0.000001  -0.000000   0.000000  -0.000000
    26  C   -0.000000   0.000074  -0.000439  -0.000000  -0.000000   0.000000
    27  C    0.000007   0.001027   0.332021  -0.000441   0.000001   0.000000
    28  H   -0.000000  -0.000006   0.001031   0.000075   0.000000  -0.000000
    29  H    0.000000  -0.000000   0.000007  -0.000000   0.000000  -0.000000
    30  C    0.000017   0.015861  -0.044790   0.000002   0.000000  -0.000000
    31  C   -0.000001   0.002274   0.006577  -0.000000   0.000000  -0.000000
    32  H    0.000000   0.000001  -0.000082   0.000000  -0.000000  -0.000000
    33  O   -0.000000  -0.000001  -0.061589   0.005208  -0.000000   0.000000
    34  H    0.000000   0.000000   0.006327   0.000936   0.000000  -0.000000
    35  O   -0.000019  -0.009727   0.004896   0.000001   0.000000   0.000000
    36  H    0.000011   0.001056  -0.000493   0.000000  -0.000000  -0.000000
              13         14         15         16         17         18
     1  C    0.000046  -0.000117  -0.000006  -0.000000   0.000000  -0.000000
     2  C    0.000346   0.004773  -0.000185   0.000015  -0.000000   0.000001
     3  C   -0.049928   0.000152   0.005198   0.000616  -0.000000  -0.000001
     4  C   -0.012762  -0.046240  -0.040097   0.003265   0.000000  -0.000000
     5  C    0.008109  -0.000033  -0.008571  -0.000209  -0.000000   0.000000
     6  C   -0.000412   0.000024   0.000204   0.000004  -0.000000  -0.000000
     7  H    0.000000   0.000001  -0.000000   0.000000   0.000000   0.000000
     8  H    0.000018  -0.000299   0.000004  -0.000000   0.000000  -0.000002
     9  C   -0.033345   0.441034   0.000159   0.004273  -0.000030  -0.000106
    10  C    0.483397  -0.008368   0.350546  -0.027199   0.000000  -0.000000
    11  H    0.000380   0.000006   0.006737  -0.000010   0.000000  -0.000000
    12  H    0.000004  -0.000000  -0.000014  -0.000000   0.000000  -0.000000
    13  C    5.122806   0.440092  -0.041556   0.342089   0.000001  -0.000000
    14  C    0.440092   4.753840   0.004073  -0.046492  -0.000006   0.000001
    15  H   -0.041556   0.004073   0.595027  -0.005544   0.000000  -0.000000
    16  H    0.342089  -0.046492  -0.005544   0.605736  -0.000000   0.000000
    17  C    0.000001  -0.000006   0.000000  -0.000000   4.893584   0.530501
    18  C   -0.000000   0.000001  -0.000000   0.000000   0.530501   5.056181
    19  C    0.000004   0.000177   0.000000  -0.000000  -0.012387   0.463632
    20  C    0.000871  -0.010244   0.000000  -0.000006  -0.033660  -0.039929
    21  C   -0.000767   0.002489  -0.000000   0.000041  -0.021955  -0.059292
    22  C   -0.000067   0.000074  -0.000000   0.000001   0.504840  -0.030753
    23  H   -0.000000  -0.000000   0.000000  -0.000000   0.000204  -0.008570
    24  H   -0.000000  -0.000000   0.000000  -0.000000   0.355335  -0.038556
    25  H    0.000000   0.000000  -0.000000  -0.000000  -0.045080   0.355023
    26  C   -0.000000   0.000002   0.000000   0.000000   0.007037  -0.066568
    27  C    0.006579  -0.044805   0.000007  -0.000082  -0.000333   0.008659
    28  H    0.002279   0.015868  -0.000002   0.000001   0.004910   0.000701
    29  H   -0.000001   0.000017  -0.000000   0.000000  -0.044617   0.004802
    30  C   -0.000170   0.004947  -0.000000   0.000001   0.000024  -0.000033
    31  C    0.000001  -0.000170  -0.000000  -0.000000  -0.000411   0.008107
    32  H   -0.000000   0.000001  -0.000000   0.000000   0.000004  -0.000209
    33  O   -0.051427   0.238924  -0.000063  -0.006498  -0.000006   0.000014
    34  H   -0.003984  -0.030143  -0.000022   0.009910  -0.000002  -0.000002
    35  O   -0.000004   0.000258   0.000000  -0.000000  -0.000000   0.000000
    36  H   -0.000000   0.000004  -0.000000   0.000000   0.000000  -0.000001
              19         20         21         22         23         24
     1  C   -0.000001   0.000019  -0.000000  -0.000000  -0.000000  -0.000000
     2  C    0.000014  -0.000047   0.000004  -0.000000  -0.000000  -0.000000
     3  C    0.000003  -0.000633  -0.000048   0.000019   0.000000   0.000000
     4  C   -0.000001   0.000003   0.000014  -0.000001   0.000000  -0.000000
     5  C   -0.000000  -0.000001   0.000001  -0.000000  -0.000000  -0.000000
     6  C    0.000000  -0.000000  -0.000000   0.000000   0.000000   0.000000
     7  H    0.000000  -0.000000  -0.000000  -0.000000  -0.000000  -0.000000
     8  H   -0.000066  -0.000116  -0.000010   0.000002  -0.000002  -0.000000
     9  C    0.006496  -0.060542  -0.015970   0.001120   0.000007   0.000000
    10  C    0.000000  -0.000003  -0.000052   0.000001   0.000000   0.000000
    11  H    0.000000  -0.000000   0.000000  -0.000000  -0.000000  -0.000000
    12  H   -0.000000   0.000000  -0.000000  -0.000000   0.000000   0.000000
    13  C    0.000004   0.000871  -0.000767  -0.000067  -0.000000  -0.000000
    14  C    0.000177  -0.010244   0.002489   0.000074  -0.000000  -0.000000
    15  H    0.000000   0.000000  -0.000000  -0.000000   0.000000   0.000000
    16  H   -0.000000  -0.000006   0.000041   0.000001  -0.000000  -0.000000
    17  C   -0.012387  -0.033660  -0.021955   0.504840   0.000204   0.355335
    18  C    0.463632  -0.039929  -0.059292  -0.030753  -0.008570  -0.038556
    19  C    4.735037   0.462589  -0.030447  -0.036672  -0.040098   0.003194
    20  C    0.462589   4.906932   0.461078  -0.017618   0.005199   0.000882
    21  C   -0.030447   0.461078   5.029829   0.532046  -0.000185   0.004449
    22  C   -0.036672  -0.017618   0.532046   4.905380  -0.000006  -0.041142
    23  H   -0.040098   0.005199  -0.000185  -0.000006   0.595035  -0.000014
    24  H    0.003194   0.000882   0.004449  -0.041142  -0.000014   0.601702
    25  H   -0.044569   0.004313   0.000504   0.004655   0.006737  -0.005415
    26  C    0.454326  -0.036726   0.011428   0.000073   0.350545  -0.000205
    27  C   -0.020043   0.372692  -0.064259   0.006175   0.000159   0.000013
    28  H    0.005165  -0.038327   0.344755  -0.043005   0.000004  -0.000198
    29  H    0.000825   0.003784  -0.039677   0.357613  -0.000000  -0.004832
    30  C   -0.046230   0.000129   0.004765  -0.000116   0.004076  -0.000000
    31  C   -0.012771  -0.049918   0.000347   0.000046  -0.041562   0.000004
    32  H    0.003265   0.000616   0.000015  -0.000000  -0.005545  -0.000000
    33  O   -0.000533  -0.006184  -0.012433  -0.001858   0.000000   0.000000
    34  H    0.000018   0.000310   0.001077   0.000184  -0.000000  -0.000000
    35  O    0.000360   0.001856  -0.000063   0.000000  -0.000063   0.000000
    36  H   -0.000074  -0.000062   0.000006  -0.000000  -0.000022  -0.000000
              25         26         27         28         29         30
     1  C   -0.000000   0.000001   0.001120   0.000002  -0.000000   0.000074
     2  C    0.000000  -0.000052  -0.015977  -0.000010  -0.000000   0.002499
     3  C   -0.000000  -0.000003  -0.060576  -0.000116  -0.000000  -0.010241
     4  C    0.000000   0.000000   0.006497  -0.000066   0.000000   0.000176
     5  C   -0.000000  -0.000000  -0.000106  -0.000002   0.000000   0.000001
     6  C    0.000000   0.000000  -0.000030   0.000000   0.000000  -0.000006
     7  H    0.000000  -0.000000   0.000007  -0.000000   0.000000   0.000017
     8  H    0.000000   0.000074   0.001027  -0.000006  -0.000000   0.015861
     9  C    0.000001  -0.000439   0.332021   0.001031   0.000007  -0.044790
    10  C   -0.000000  -0.000000  -0.000441   0.000075  -0.000000   0.000002
    11  H    0.000000  -0.000000   0.000001   0.000000   0.000000   0.000000
    12  H   -0.000000   0.000000   0.000000  -0.000000  -0.000000  -0.000000
    13  C    0.000000  -0.000000   0.006579   0.002279  -0.000001  -0.000170
    14  C    0.000000   0.000002  -0.044805   0.015868   0.000017   0.004947
    15  H   -0.000000   0.000000   0.000007  -0.000002  -0.000000  -0.000000
    16  H   -0.000000   0.000000  -0.000082   0.000001   0.000000   0.000001
    17  C   -0.045080   0.007037  -0.000333   0.004910  -0.044617   0.000024
    18  C    0.355023  -0.066568   0.008659   0.000701   0.004802  -0.000033
    19  C   -0.044569   0.454326  -0.020043   0.005165   0.000825  -0.046230
    20  C    0.004313  -0.036726   0.372692  -0.038327   0.003784   0.000129
    21  C    0.000504   0.011428  -0.064259   0.344755  -0.039677   0.004765
    22  C    0.004655   0.000073   0.006175  -0.043005   0.357613  -0.000116
    23  H    0.006737   0.350545   0.000159   0.000004  -0.000000   0.004076
    24  H   -0.005415  -0.000205   0.000013  -0.000198  -0.004832  -0.000000
    25  H    0.609047  -0.009238  -0.000137   0.000019  -0.000211   0.000006
    26  C   -0.009238   5.053001  -0.044595  -0.000195   0.000006  -0.008414
    27  C   -0.000137  -0.044595   5.177254  -0.011881  -0.000138   0.441048
    28  H    0.000019  -0.000195  -0.011881   0.602808  -0.006721  -0.000300
    29  H   -0.000211   0.000006  -0.000138  -0.006721   0.607778   0.000001
    30  C    0.000006  -0.008414   0.441048  -0.000300   0.000001   4.753836
    31  C    0.000379   0.483464  -0.033319   0.000018   0.000000   0.440081
    32  H   -0.000010  -0.027193   0.004274  -0.000000   0.000000  -0.046502
    33  O    0.000000   0.000001   0.004912  -0.009762  -0.000019   0.000258
    34  H   -0.000000   0.000000  -0.000494   0.001057   0.000012   0.000004
    35  O   -0.000000   0.005209  -0.061596  -0.000001  -0.000000   0.238921
    36  H    0.000000   0.000937   0.006324   0.000000   0.000000  -0.030161
              31         32         33         34         35         36
     1  C   -0.000067   0.000001   0.000000  -0.000000  -0.001857   0.000183
     2  C   -0.000765   0.000041  -0.000063   0.000006  -0.012401   0.001073
     3  C    0.000871  -0.000006   0.001856  -0.000062  -0.006167   0.000308
     4  C    0.000004  -0.000000   0.000360  -0.000074  -0.000531   0.000018
     5  C   -0.000000   0.000000   0.000000  -0.000001   0.000014  -0.000002
     6  C    0.000001  -0.000000  -0.000000   0.000000  -0.000006  -0.000002
     7  H   -0.000001   0.000000  -0.000000   0.000000  -0.000019   0.000011
     8  H    0.002274   0.000001  -0.000001   0.000000  -0.009727   0.001056
     9  C    0.006577  -0.000082  -0.061589   0.006327   0.004896  -0.000493
    10  C   -0.000000   0.000000   0.005208   0.000936   0.000001   0.000000
    11  H    0.000000  -0.000000  -0.000000   0.000000   0.000000  -0.000000
    12  H   -0.000000  -0.000000   0.000000  -0.000000   0.000000  -0.000000
    13  C    0.000001  -0.000000  -0.051427  -0.003984  -0.000004  -0.000000
    14  C   -0.000170   0.000001   0.238924  -0.030143   0.000258   0.000004
    15  H   -0.000000  -0.000000  -0.000063  -0.000022   0.000000  -0.000000
    16  H   -0.000000   0.000000  -0.006498   0.009910  -0.000000   0.000000
    17  C   -0.000411   0.000004  -0.000006  -0.000002  -0.000000   0.000000
    18  C    0.008107  -0.000209   0.000014  -0.000002   0.000000  -0.000001
    19  C   -0.012771   0.003265  -0.000533   0.000018   0.000360  -0.000074
    20  C   -0.049918   0.000616  -0.006184   0.000310   0.001856  -0.000062
    21  C    0.000347   0.000015  -0.012433   0.001077  -0.000063   0.000006
    22  C    0.000046  -0.000000  -0.001858   0.000184   0.000000  -0.000000
    23  H   -0.041562  -0.005545   0.000000  -0.000000  -0.000063  -0.000022
    24  H    0.000004  -0.000000   0.000000  -0.000000   0.000000  -0.000000
    25  H    0.000379  -0.000010   0.000000  -0.000000  -0.000000   0.000000
    26  C    0.483464  -0.027193   0.000001   0.000000   0.005209   0.000937
    27  C   -0.033319   0.004274   0.004912  -0.000494  -0.061596   0.006324
    28  H    0.000018  -0.000000  -0.009762   0.001057  -0.000001   0.000000
    29  H    0.000000   0.000000  -0.000019   0.000012  -0.000000   0.000000
    30  C    0.440081  -0.046502   0.000258   0.000004   0.238921  -0.030161
    31  C    5.122788   0.342085  -0.000004  -0.000000  -0.051403  -0.003975
    32  H    0.342085   0.605741  -0.000000   0.000000  -0.006501   0.009916
    33  O   -0.000004  -0.000000   8.279176   0.237322  -0.000000  -0.000000
    34  H   -0.000000   0.000000   0.237322   0.372662  -0.000000   0.000000
    35  O   -0.051403  -0.006501  -0.000000  -0.000000   8.279055   0.237336
    36  H   -0.003975   0.009916  -0.000000   0.000000   0.237336   0.372655
 Mulliken charges:
               1
     1  C   -0.140975
     2  C   -0.147722
     3  C    0.072721
     4  C    0.108824
     5  C   -0.183614
     6  C   -0.137951
     7  H    0.121374
     8  H    0.131906
     9  C   -0.009929
    10  C   -0.172536
    11  H    0.123978
    12  H    0.124786
    13  C   -0.212598
    14  C    0.280160
    15  H    0.134102
    16  H    0.120087
    17  C   -0.137952
    18  C   -0.183602
    19  C    0.108784
    20  C    0.072744
    21  C   -0.147689
    22  C   -0.140991
    23  H    0.134100
    24  H    0.124783
    25  H    0.123974
    26  C   -0.172476
    27  C   -0.009958
    28  H    0.131899
    29  H    0.121369
    30  C    0.280234
    31  C   -0.212682
    32  H    0.120087
    33  O   -0.617591
    34  H    0.404959
    35  O   -0.617569
    36  H    0.404965
 Sum of Mulliken charges =  -0.00000
 Mulliken charges with hydrogens summed into heavy atoms:
               1
     1  C   -0.019601
     2  C   -0.015816
     3  C    0.072721
     4  C    0.108824
     5  C   -0.059636
     6  C   -0.013165
     9  C   -0.009929
    10  C   -0.038434
    13  C   -0.092512
    14  C    0.280160
    17  C   -0.013169
    18  C   -0.059628
    19  C    0.108784
    20  C    0.072744
    21  C   -0.015790
    22  C   -0.019622
    26  C   -0.038376
    27  C   -0.009958
    30  C    0.280234
    31  C   -0.092595
    33  O   -0.212632
    35  O   -0.212604
 Electronic spatial extent (au):  <R**2>=           6053.5892
 Charge=             -0.0000 electrons
 Dipole moment (field-independent basis, Debye):
    X=              0.0008    Y=             -0.0004    Z=              0.6453  Tot=              0.6453
 Quadrupole moment (field-independent basis, Debye-Ang):
   XX=           -116.4550   YY=            -96.7856   ZZ=           -130.1954
   XY=              5.3697   XZ=             -0.0018   YZ=             -0.0010
 Traceless Quadrupole moment (field-independent basis, Debye-Ang):
   XX=             -1.9763   YY=             17.6931   ZZ=            -15.7167
   XY=              5.3697   XZ=             -0.0018   YZ=             -0.0010
 Octapole moment (field-independent basis, Debye-Ang**2):
  XXX=             -0.0013  YYY=              0.0100  ZZZ=            -10.2318  XYY=              0.0186
  XXY=             -0.0003  XXZ=             18.5947  XZZ=              0.0008  YZZ=              0.0068
  YYZ=            -21.0759  XYZ=            -16.5391
 Hexadecapole moment (field-independent basis, Debye-Ang**3):
 XXXX=          -5100.5519 YYYY=          -1747.2377 ZZZZ=           -595.5234 XXXY=             58.6503
 XXXZ=             -0.0258 YYYX=             12.7893 YYYZ=             -0.0389 ZZZX=             -0.0082
 ZZZY=             -0.0190 XXYY=          -1204.6746 XXZZ=          -1058.1238 YYZZ=           -430.4302
 XXYZ=              0.0070 YYXZ=             -0.0214 ZZXY=            -33.1053
 N-N= 1.676980348223D+03 E-N=-5.493915739829D+03  KE= 9.122470657933D+02
 Unable to Open any file for archive entry.
 1\1\GINC-CCC167\SP\RB3LYP TD-FC\6-31G(d)\C20H14O2\ROOT\20-Feb-2025\0\\
 # td=(nstat=16) b3lyp/6-31g(d)\\binol | No.10\\0,1\C,0,-3.131365,-1.82
 4923,-1.195616\C,0,-1.946151,-1.344387,-0.678689\C,0,-1.860367,-0.1169
 28,0.038926\C,0,-3.054013,0.685309,-0.01313\C,0,-4.279983,0.146951,-0.
 487542\C,0,-4.336034,-1.107707,-1.044792\H,0,-3.126782,-2.761294,-1.74
 8099\H,0,-1.04642,-1.900618,-0.888705\C,0,-0.635575,0.406493,0.680007\
 C,0,-2.969685,2.073958,0.254902\H,0,-5.164675,0.778709,-0.450045\H,0,-
 5.271824,-1.510398,-1.422199\C,0,-1.751545,2.628406,0.515895\C,0,-0.60
 3072,1.810254,0.680279\H,0,-3.863037,2.689737,0.190949\H,0,-1.647049,3
 .702145,0.663207\C,0,4.335635,1.108218,-1.044873\C,0,4.279892,-0.14646
 9,-0.487669\C,0,3.054062,-0.68512,-0.013232\C,0,1.860282,0.116865,0.03
 8953\C,0,1.945746,1.34437,-0.678631\C,0,3.1308,1.825172,-1.195663\H,0,
 3.863406,-2.689457,0.190718\H,0,5.271327,1.511131,-1.422287\H,0,5.1647
 35,-0.778022,-0.450237\C,0,2.969954,-2.073824,0.25465\C,0,0.635596,-0.
 406846,0.680103\H,0,1.045815,1.900348,-0.888587\H,0,3.125987,2.761524,
 -1.748172\C,0,0.603227,-1.81058,0.679834\C,0,1.751883,-2.628488,0.5154
 76\H,0,1.647564,-3.702255,0.662719\O,0,0.499477,2.423274,1.234022\H,0,
 0.337902,3.377452,1.285957\O,0,-0.49896,-2.423942,1.233902\H,0,-0.3367
 97,-3.377997,1.286275\\Version=ES64L-G16RevC.02\State=1-A\HF=-920.9557
 218\RMSD=7.877e-09\PG=C01 [X(C20H14O2)]\\@
 The archive entry for this job was punched.


 Make no judgements where you have no compassion.
                               -- Anne McCaffrey
 Job cpu time:       0 days  0 hours 44 minutes 33.1 seconds.
 Elapsed time:       0 days  0 hours  5 minutes 48.4 seconds.
 File lengths (MBytes):  RWF=   1295 Int=      0 D2E=      0 Chk=     78 Scr=      1
 Normal termination of Gaussian 16 at Thu Feb 20 09:32:54 2025.
