 Entering Gaussian System, Link 0=/apl/gaussian/16c02/g16/._.g16
 Initial command:
 /apl/gaussian/16c02/g16/l1.exe "/lwork/users/ux8/8279369.ccpbs1/gaussian/Gau-2444564.inp" -scrdir="/lwork/users/ux8/8279369.ccpbs1/gaussian/"
 Default CPUs for threads: 56,57,58,59,60,61,62,63
 Default is to use a total of   8 processors:
                                8 via shared-memory
                                1 via Linda
 Entering Link 1 = /apl/gaussian/16c02/g16/l1.exe PID=   2444565.
  
 Copyright (c) 1988-2021, Gaussian, Inc.  All Rights Reserved.
  
 This is part of the Gaussian(R) 16 program.  It is based on
 the Gaussian(R) 09 system (copyright 2009, Gaussian, Inc.),
 the Gaussian(R) 03 system (copyright 2003, Gaussian, Inc.),
 the Gaussian(R) 98 system (copyright 1998, Gaussian, Inc.),
 the Gaussian(R) 94 system (copyright 1995, Gaussian, Inc.),
 the Gaussian 92(TM) system (copyright 1992, Gaussian, Inc.),
 the Gaussian 90(TM) system (copyright 1990, Gaussian, Inc.),
 the Gaussian 88(TM) system (copyright 1988, Gaussian, Inc.),
 the Gaussian 86(TM) system (copyright 1986, Carnegie Mellon
 University), and the Gaussian 82(TM) system (copyright 1983,
 Carnegie Mellon University). Gaussian is a federally registered
 trademark of Gaussian, Inc.
  
 This software contains proprietary and confidential information,
 including trade secrets, belonging to Gaussian, Inc.
  
 This software is provided under written license and may be
 used, copied, transmitted, or stored only in accord with that
 written license.
  
 The following legend is applicable only to US Government
 contracts under FAR:
  
                    RESTRICTED RIGHTS LEGEND
  
 Use, reproduction and disclosure by the US Government is
 subject to restrictions as set forth in subparagraphs (a)
 and (c) of the Commercial Computer Software - Restricted
 Rights clause in FAR 52.227-19.
  
 Gaussian, Inc.
 340 Quinnipiac St., Bldg. 40, Wallingford CT 06492
  
  
 ---------------------------------------------------------------
 Warning -- This program may not be used in any manner that
 competes with the business of Gaussian, Inc. or will provide
 assistance to any competitor of Gaussian, Inc.  The licensee
 of this program is prohibited from giving any competitor of
 Gaussian, Inc. access to this program.  By using this program,
 the user acknowledges that Gaussian, Inc. is engaged in the
 business of creating and licensing software in the field of
 computational chemistry and represents and warrants to the
 licensee that it is not a competitor of Gaussian, Inc. and that
 it will not use this program in any manner prohibited above.
 ---------------------------------------------------------------
  

 Cite this work as:
 Gaussian 16, Revision C.02,
 M. J. Frisch, G. W. Trucks, H. B. Schlegel, G. E. Scuseria, 
 M. A. Robb, J. R. Cheeseman, G. Scalmani, V. Barone, 
 G. A. Petersson, H. Nakatsuji, X. Li, M. Caricato, A. V. Marenich, 
 J. Bloino, B. G. Janesko, R. Gomperts, B. Mennucci, H. P. Hratchian, 
 J. V. Ortiz, A. F. Izmaylov, J. L. Sonnenberg, D. Williams-Young, 
 F. Ding, F. Lipparini, F. Egidi, J. Goings, B. Peng, A. Petrone, 
 T. Henderson, D. Ranasinghe, V. G. Zakrzewski, J. Gao, N. Rega, 
 G. Zheng, W. Liang, M. Hada, M. Ehara, K. Toyota, R. Fukuda, 
 J. Hasegawa, M. Ishida, T. Nakajima, Y. Honda, O. Kitao, H. Nakai, 
 T. Vreven, K. Throssell, J. A. Montgomery, Jr., J. E. Peralta, 
 F. Ogliaro, M. J. Bearpark, J. J. Heyd, E. N. Brothers, K. N. Kudin, 
 V. N. Staroverov, T. A. Keith, R. Kobayashi, J. Normand, 
 K. Raghavachari, A. P. Rendell, J. C. Burant, S. S. Iyengar, 
 J. Tomasi, M. Cossi, J. M. Millam, M. Klene, C. Adamo, R. Cammi, 
 J. W. Ochterski, R. L. Martin, K. Morokuma, O. Farkas, 
 J. B. Foresman, and D. J. Fox, Gaussian, Inc., Wallingford CT, 2019.
 
 ******************************************
 Gaussian 16:  ES64L-G16RevC.02  7-Dec-2021
                20-Feb-2025 
 ******************************************
 %chk=binol.015.tddft.chk
 %mem=9600MB
 SetSPE:  set environment variable "OMP_PROC_BIND" = "true"
 SetSPE:  set environment variable "OMP_PLACES" = "{56},{57},{58},{59},{60},{61},{62},{63}"
 ------------------------------
 # td=(nstat=16) b3lyp/6-31g(d)
 ------------------------------
 1/38=1,172=1/1;
 2/12=2,17=6,18=5,40=1/2;
 3/5=1,6=6,7=1,11=9,25=1,30=1,74=-5/1,2,3,8;
 4//1;
 5/5=2,38=5/2;
 8/6=1,10=2,108=16/1;
 9/41=16,42=1,70=2/14;
 6/7=2,8=2,9=2,10=2/1;
 99/5=1,9=1/99;
 -------------
 binol | No.15
 -------------
 Symbolic Z-matrix:
 Charge =  0 Multiplicity = 1
 C                    -2.9184   -1.88287   1.48477 
 C                    -1.79591  -1.40432   0.84702 
 C                    -1.80976  -0.1655    0.14576 
 C                    -3.03136   0.58911   0.17149 
 C                    -4.17734   0.06015   0.82363 
 C                    -4.13143  -1.15546   1.4639 
 H                    -2.86943  -2.82967   2.01668 
 H                    -0.87452  -1.97133   0.89399 
 C                    -0.65544   0.35917  -0.5363 
 C                    -3.06195   1.87534  -0.42363 
 H                    -5.09289   0.64764   0.81641 
 H                    -5.01194  -1.54927   1.9641 
 C                    -1.93735   2.40089  -1.00566 
 C                    -0.73557   1.65187  -1.04688 
 H                    -3.98626   2.44733  -0.40197 
 H                    -1.9578    3.39451  -1.45101 
 C                     4.1315    1.15538   1.46383 
 C                     4.17735  -0.0603    0.82368 
 C                     3.03135  -0.58925   0.17155 
 C                     1.80984   0.16545   0.14572 
 C                     1.79604   1.40435   0.84685 
 C                     2.91855   1.8829    1.48458 
 H                     3.98609  -2.44754  -0.40186 
 H                     5.01203   1.54915   1.96402 
 H                     5.09287  -0.64784   0.81657 
 C                     3.06183  -1.87547  -0.42361 
 C                     0.65545  -0.35914  -0.53633 
 H                     0.87465   1.97138   0.89372 
 H                     2.86966   2.82975   2.01641 
 C                     0.73547  -1.65175  -1.04709 
 C                     1.93723  -2.40086  -1.00579 
 H                     1.95766  -3.39442  -1.4513 
 O                     0.36645   2.17108  -1.67334 
 H                     0.15433   3.06167  -1.99192 
 O                    -0.36648  -2.17077  -1.67386 
 H                    -0.1548   -3.06187  -1.9913 
 
                          Input orientation:                          
 ---------------------------------------------------------------------
 Center     Atomic      Atomic             Coordinates (Angstroms)
 Number     Number       Type             X           Y           Z
 ---------------------------------------------------------------------
      1          6           0       -2.918402   -1.882871    1.484769
      2          6           0       -1.795910   -1.404322    0.847020
      3          6           0       -1.809764   -0.165501    0.145757
      4          6           0       -3.031359    0.589108    0.171489
      5          6           0       -4.177345    0.060153    0.823629
      6          6           0       -4.131426   -1.155462    1.463904
      7          1           0       -2.869433   -2.829672    2.016684
      8          1           0       -0.874523   -1.971330    0.893986
      9          6           0       -0.655435    0.359171   -0.536296
     10          6           0       -3.061950    1.875341   -0.423625
     11          1           0       -5.092889    0.647643    0.816409
     12          1           0       -5.011935   -1.549273    1.964099
     13          6           0       -1.937354    2.400886   -1.005656
     14          6           0       -0.735567    1.651865   -1.046882
     15          1           0       -3.986258    2.447325   -0.401972
     16          1           0       -1.957804    3.394510   -1.451006
     17          6           0        4.131500    1.155377    1.463827
     18          6           0        4.177353   -0.060303    0.823683
     19          6           0        3.031354   -0.589247    0.171552
     20          6           0        1.809837    0.165448    0.145723
     21          6           0        1.796035    1.404351    0.846847
     22          6           0        2.918551    1.882903    1.484575
     23          1           0        3.986085   -2.447539   -0.401855
     24          1           0        5.012028    1.549149    1.964023
     25          1           0        5.092870   -0.647837    0.816572
     26          6           0        3.061835   -1.875466   -0.423611
     27          6           0        0.655453   -0.359135   -0.536325
     28          1           0        0.874646    1.971379    0.893723
     29          1           0        2.869660    2.829751    2.016408
     30          6           0        0.735469   -1.651750   -1.047089
     31          6           0        1.937229   -2.400863   -1.005795
     32          1           0        1.957662   -3.394419   -1.451295
     33          8           0        0.366451    2.171076   -1.673335
     34          1           0        0.154333    3.061667   -1.991921
     35          8           0       -0.366484   -2.170774   -1.673855
     36          1           0       -0.154796   -3.061869   -1.991300
 ---------------------------------------------------------------------
                    Distance matrix (angstroms):
                    1          2          3          4          5
     1  C    0.000000
     2  C    1.376852   0.000000
     3  C    2.443643   1.423601   0.000000
     4  C    2.801454   2.440582   1.436103   0.000000
     5  C    2.407776   2.795794   2.473029   1.420691   0.000000
     6  C    1.414562   2.428397   2.847393   2.433929   1.374693
     7  H    1.087090   2.133586   3.423605   3.888319   3.388968
     8  H    2.129387   1.082893   2.166920   3.424878   3.878209
     9  C    3.772595   2.514787   1.439775   2.489748   3.787170
    10  C    4.217432   3.738126   2.461138   1.417565   2.468736
    11  H    3.402734   3.883499   3.448172   2.160846   1.087850
    12  H    2.173459   3.407593   3.933839   3.421813   2.141837
    13  C    5.051262   4.234622   2.815737   2.421788   3.720601
    14  C    4.865016   3.748529   2.424687   2.807943   4.228261
    15  H    4.842593   4.603563   3.444415   2.166486   2.690205
    16  H    6.114922   5.323150   3.904516   3.413985   4.606329
    17  C    7.676751   6.485885   6.227411   7.300503   8.405134
    18  C    7.355850   6.122647   6.026294   7.267229   8.355566
    19  C    6.228772   4.941971   4.859696   6.176165   7.267205
    20  C    5.323993   3.994672   3.634699   4.859766   6.026358
    21  C    5.782620   4.559683   3.994715   4.942111   6.122800
    22  C    6.946299   5.782600   5.324036   6.228927   7.356018
    23  H    7.179843   6.006618   6.252955   7.667755   8.627394
    24  H    8.654488   7.504579   7.265188   8.296441   9.378816
    25  H    8.133405   6.930259   6.951906   8.243134   9.297214
    26  C    6.277356   5.043230   5.194289   6.599643   7.596575
    27  C    4.379387   3.002539   2.565156   3.872047   5.037977
    28  H    5.439834   4.304580   3.511661   4.205850   5.401880
    29  H    7.482854   6.407994   5.862412   6.576187   7.665095
    30  C    4.451348   3.171238   3.179627   4.549216   5.528647
    31  C    5.481640   4.285131   4.512524   5.917161   6.840424
    32  H    5.889079   4.830325   5.212484   6.587279   7.399166
    33  O    6.099046   4.879699   3.674860   4.177453   5.597938
    34  H    6.780673   5.639866   4.340732   4.576300   5.974935
    35  O    4.070882   2.997585   3.068414   4.257206   5.073177
    36  H    4.594628   3.673796   3.961676   5.126588   5.818225
                    6          7          8          9         10
     6  C    0.000000
     7  H    2.168218   0.000000
     8  H    3.405564   2.444763   0.000000
     9  C    4.286890   4.646312   2.743163   0.000000
    10  C    3.727239   5.303708   4.617122   2.846538   0.000000
    11  H    2.143560   4.298388   4.965848   4.648013   2.677618
    12  H    1.086544   2.496498   4.294351   5.373381   4.607781
    13  C    4.853894   6.112450   4.884109   2.456057   1.371012
    14  C    5.071192   5.832923   4.112641   1.392184   2.418770
    15  H    4.059882   5.911336   5.557600   3.933550   1.087189
    16  H    5.824395   7.183062   5.955227   3.427265   2.140683
    17  C    8.579972   8.074610   5.929695   5.248732   7.471716
    18  C    8.405062   7.664845   5.401705   5.037990   7.596710
    19  C    7.300424   6.575964   4.205703   3.872074   6.599756
    20  C    6.227440   5.862321   3.511624   2.565199   5.194439
    21  C    6.486000   6.407969   4.304570   3.002531   5.043406
    22  C    7.676866   7.482798   5.439790   4.379390   6.277553
    23  H    8.428790   7.279662   5.052869   5.425809   8.268166
    24  H    9.548183   9.016334   6.941919   6.307756   8.425935
    25  H    9.260905   8.342598   6.112889   5.990603   8.625868
    26  C    7.471554   6.484249   4.152128   4.338709   7.181176
    27  C    5.248739   5.004621   2.643064   1.494788   4.338741
    28  H    5.929840   6.191063   4.313299   2.642975   4.152279
    29  H    8.074800   8.060165   6.191051   5.004634   6.484494
    30  C    5.498914   4.875400   2.542042   2.497864   5.220102
    31  C    6.669259   5.694142   3.420470   3.815773   6.604289
    32  H    7.112546   5.970483   3.942943   4.664219   7.350033
    33  O    6.413971   7.006759   5.028984   2.370677   3.661034
    34  H    6.935029   7.740798   5.892204   3.174595   3.769801
    35  O    5.005115   4.507658   2.625203   2.788934   5.019926
    36  H    5.602357   4.846350   3.167358   3.751159   5.940134
                   11         12         13         14         15
    11  H    0.000000
    12  H    2.479957   0.000000
    13  C    4.043660   5.820331   0.000000
    14  C    4.844231   6.131934   1.416695   0.000000
    15  H    2.438840   4.756375   2.136492   3.408175   0.000000
    16  H    4.745019   6.740300   1.089056   2.166562   2.472298
    17  C    9.261009   9.548183   6.669380   5.498955   8.429017
    18  C    9.297238   9.378731   6.840583   5.528772   8.627571
    19  C    8.243122   8.296347   5.917328   4.549380   7.667893
    20  C    6.951975   7.265214   4.512682   3.179752   6.253131
    21  C    6.930426   7.504705   4.285212   3.171196   6.006851
    22  C    8.133602   8.654616   5.481731   4.451318   7.180113
    23  H    9.669131   9.347138   7.678472   6.286109   9.355103
    24  H   10.209754  10.491904   7.605153   6.489295   9.347396
    25  H   10.267812  10.209627   7.876502   6.536954   9.669304
    26  C    8.625732   8.425754   6.604381   5.220229   8.268168
    27  C    5.990570   6.307760   3.815840   2.497944   5.425841
    28  H    6.113078   6.942084   3.420447   2.541815   5.053092
    29  H    8.342888   9.016547   5.694223   4.875328   7.280002
    30  C    6.536787   6.489253   4.854849   3.616327   6.285960
    31  C    7.876317   7.605022   6.170023   4.854908   7.678361
    32  H    8.437477   7.977767   6.996807   5.734284   8.399836
    33  O    6.190643   7.483245   2.409590   1.369842   4.542989
    34  H    6.422427   7.975035   2.405100   1.916393   4.477706
    35  O    6.040182   5.933059   4.879979   3.891258   6.003939
    36  H    6.784429   6.443984   5.830154   4.842366   6.896179
                   16         17         18         19         20
    16  H    0.000000
    17  C    7.112636   0.000000
    18  C    7.399331   1.374687   0.000000
    19  C    6.587466   2.433929   1.420694   0.000000
    20  C    5.212629   2.847363   2.472999   1.436083   0.000000
    21  C    4.830338   2.428384   2.795787   2.440588   1.423603
    22  C    5.889094   1.414556   2.407781   2.801478   2.443650
    23  H    8.400004   4.059916   2.690246   2.166462   3.444357
    24  H    7.977866   1.086546   2.141820   3.421806   3.933811
    25  H    8.437682   2.143537   1.087850   2.160864   3.448156
    26  C    7.350168   3.727280   2.468793   1.417571   2.461091
    27  C    4.664290   4.286870   3.787176   2.489768   1.439784
    28  H    3.942820   3.405580   3.878210   3.424869   2.166904
    29  H    5.970454   2.168205   3.388962   3.888340   3.423623
    30  C    5.734249   5.071261   4.228363   2.808040   2.424722
    31  C    6.996845   4.853937   3.720667   2.421819   2.815701
    32  H    7.837119   5.824444   4.606396   3.414006   3.904481
    33  O    2.635978   5.004900   5.073177   4.257311   3.068367
    34  H    2.205560   5.603034   5.818850   5.127089   3.962108
    35  O    5.792611   6.414062   5.598057   4.177566   3.674938
    36  H    6.725146   6.935085   5.975035   4.576389   4.340763
                   21         22         23         24         25
    21  C    0.000000
    22  C    1.376863   0.000000
    23  H    4.603546   4.842621   0.000000
    24  H    3.407589   2.173455   4.756412   0.000000
    25  H    3.883492   3.402725   2.438947   2.479905   0.000000
    26  C    3.738116   4.217469   1.087189   4.607823   2.677729
    27  C    2.514751   3.772583   3.933526   5.373363   4.648048
    28  H    1.082902   2.129432   5.557554   4.294386   4.965849
    29  H    2.133614   1.087087   5.911361   2.496483   4.298359
    30  C    3.748539   4.865074   3.408242   6.132007   4.844380
    31  C    4.234604   5.051296   2.136524   5.820378   4.043784
    32  H    5.323136   6.114963   2.472328   6.740357   4.745151
    33  O    2.997148   4.070461   6.004167   5.932837   6.040277
    34  H    3.674301   4.595260   6.896520   6.444719   6.785072
    35  O    4.879749   6.099134   4.543065   7.483340   6.190808
    36  H    5.639853   6.780703   4.477793   7.975095   6.422592
                   26         27         28         29         30
    26  C    0.000000
    27  C    2.846513   0.000000
    28  H    4.617075   2.743060   0.000000
    29  H    5.303743   4.646305   2.444853   0.000000
    30  C    2.418833   1.392170   4.112564   5.832978   0.000000
    31  C    1.371028   2.456014   4.884030   6.112484   1.416722
    32  H    2.140689   3.427224   5.955151   7.183105   2.166572
    33  O    5.020100   2.788957   2.624486   4.507118   3.891318
    34  H    5.940408   3.751235   3.167731   4.847008   4.842182
    35  O    3.661105   2.370731   5.028945   7.006848   1.369862
    36  H    3.769869   3.174622   5.892087   7.740817   1.916388
                   31         32         33         34         35
    31  C    0.000000
    32  H    1.089055   0.000000
    33  O    4.880121   5.792753   0.000000
    34  H    5.830128   6.724977   0.969352   0.000000
    35  O    2.409635   2.636000   4.403278   5.267908   0.000000
    36  H    2.405144   2.205601   5.268445   6.131334   0.969347
                   36
    36  H    0.000000
 Stoichiometry    C20H14O2
 Framework group  C1[X(C20H14O2)]
 Deg. of freedom   102
 Full point group                 C1      NOp   1
 Largest Abelian subgroup         C1      NOp   1
 Largest concise Abelian subgroup C1      NOp   1
                         Standard orientation:                         
 ---------------------------------------------------------------------
 Center     Atomic      Atomic             Coordinates (Angstroms)
 Number     Number       Type             X           Y           Z
 ---------------------------------------------------------------------
      1          6           0        2.918402   -1.882871   -1.484769
      2          6           0        1.795910   -1.404322   -0.847020
      3          6           0        1.809764   -0.165501   -0.145757
      4          6           0        3.031359    0.589108   -0.171489
      5          6           0        4.177345    0.060153   -0.823629
      6          6           0        4.131426   -1.155462   -1.463904
      7          1           0        2.869433   -2.829672   -2.016684
      8          1           0        0.874523   -1.971330   -0.893986
      9          6           0        0.655435    0.359171    0.536296
     10          6           0        3.061950    1.875341    0.423625
     11          1           0        5.092889    0.647643   -0.816409
     12          1           0        5.011935   -1.549273   -1.964099
     13          6           0        1.937354    2.400886    1.005656
     14          6           0        0.735567    1.651865    1.046882
     15          1           0        3.986258    2.447325    0.401972
     16          1           0        1.957804    3.394510    1.451006
     17          6           0       -4.131500    1.155377   -1.463827
     18          6           0       -4.177353   -0.060303   -0.823683
     19          6           0       -3.031354   -0.589247   -0.171552
     20          6           0       -1.809837    0.165448   -0.145723
     21          6           0       -1.796035    1.404351   -0.846847
     22          6           0       -2.918551    1.882903   -1.484575
     23          1           0       -3.986085   -2.447539    0.401855
     24          1           0       -5.012028    1.549149   -1.964023
     25          1           0       -5.092870   -0.647837   -0.816572
     26          6           0       -3.061835   -1.875466    0.423611
     27          6           0       -0.655453   -0.359135    0.536325
     28          1           0       -0.874646    1.971379   -0.893723
     29          1           0       -2.869660    2.829751   -2.016408
     30          6           0       -0.735469   -1.651750    1.047089
     31          6           0       -1.937229   -2.400863    1.005795
     32          1           0       -1.957662   -3.394419    1.451295
     33          8           0       -0.366451    2.171076    1.673335
     34          1           0       -0.154333    3.061667    1.991921
     35          8           0        0.366484   -2.170774    1.673855
     36          1           0        0.154796   -3.061869    1.991300
 ---------------------------------------------------------------------
 Rotational constants (GHZ):           0.4948116           0.2261347           0.1934505
 Standard basis: 6-31G(d) (6D, 7F)
 There are   358 symmetry adapted cartesian basis functions of A   symmetry.
 There are   358 symmetry adapted basis functions of A   symmetry.
   358 basis functions,   672 primitive gaussians,   358 cartesian basis functions
    75 alpha electrons       75 beta electrons
       nuclear repulsion energy      1674.7600312724 Hartrees.
 NAtoms=   36 NActive=   36 NUniq=   36 SFac= 1.00D+00 NAtFMM=   60 NAOKFM=F Big=F
 Integral buffers will be    131072 words long.
 Regular integral format.
 Two-electron integral symmetry is turned on.
 One-electron integrals computed using PRISM.
 NBasis=   358 RedAO= T EigKep=  2.40D-04  NBF=   358
 NBsUse=   358 1.00D-06 EigRej= -1.00D+00 NBFU=   358
 ExpMin= 1.61D-01 ExpMax= 5.48D+03 ExpMxC= 8.25D+02 IAcc=3 IRadAn=         5 AccDes= 0.00D+00
 Harris functional with IExCor=  402 and IRadAn=       5 diagonalized for initial guess.
 HarFok:  IExCor=  402 AccDes= 0.00D+00 IRadAn=         5 IDoV= 1 UseB2=F ITyADJ=14
 ICtDFT=  3500011 ScaDFX=  1.000000  1.000000  1.000000  1.000000
 FoFCou: FMM=F IPFlag=           0 FMFlag=      100000 FMFlg1=           0
         NFxFlg=           0 DoJE=T BraDBF=F KetDBF=T FulRan=T
         wScrn=  0.000000 ICntrl=       500 IOpCl=  0 I1Cent=   200000004 NGrid=           0
         NMat0=    1 NMatS0=      1 NMatT0=    0 NMatD0=    1 NMtDS0=    0 NMtDT0=    0
 Petite list used in FoFCou.
 Requested convergence on RMS density matrix=1.00D-08 within 128 cycles.
 Requested convergence on MAX density matrix=1.00D-06.
 Requested convergence on             energy=1.00D-06.
 No special actions if energy rises.
 Integral accuracy reduced to 1.0D-05 until final iterations.
 Initial convergence to 1.0D-05 achieved.  Increase integral accuracy.
 SCF Done:  E(RB3LYP) =  -921.010540858     A.U. after   14 cycles
            NFock= 14  Conv=0.71D-08     -V/T= 2.0095
 DoSCS=F DFT=T ScalE2(SS,OS)=  1.000000  1.000000
 ExpMin= 1.61D-01 ExpMax= 5.48D+03 ExpMxC= 8.25D+02 IAcc=3 IRadAn=         5 AccDes= 0.00D+00
 HarFok:  IExCor=  205 AccDes= 0.00D+00 IRadAn=         5 IDoV=-2 UseB2=F ITyADJ=14
 ICtDFT= 12500011 ScaDFX=  1.000000  1.000000  1.000000  1.000000
 GSVD:  LWork=        -660 too small for GESVD, short by        2750 words or        2750 for optimal perf.
 Range of M.O.s used for correlation:    23   358
 NBasis=   358 NAE=    75 NBE=    75 NFC=    22 NFV=     0
 NROrb=    336 NOA=    53 NOB=    53 NVA=   283 NVB=   283
 Orbital symmetries:
       Occupied  (A) (A) (A) (A) (A) (A) (A) (A) (A) (A) (A) (A)
                 (A) (A) (A) (A) (A) (A) (A) (A) (A) (A) (A) (A)
                 (A) (A) (A) (A) (A) (A) (A) (A) (A) (A) (A) (A)
                 (A) (A) (A) (A) (A) (A) (A) (A) (A) (A) (A) (A)
                 (A) (A) (A) (A) (A) (A) (A) (A) (A) (A) (A) (A)
                 (A) (A) (A) (A) (A) (A) (A) (A) (A) (A) (A) (A)
                 (A) (A) (A)
       Virtual   (A) (A) (A) (A) (A) (A) (A) (A) (A) (A) (A) (A)
                 (A) (A) (A) (A) (A) (A) (A) (A) (A) (A) (A) (A)
                 (A) (A) (A) (A) (A) (A) (A) (A) (A) (A) (A) (A)
                 (A) (A) (A) (A) (A) (A) (A) (A) (A) (A) (A) (A)
                 (A) (A) (A) (A) (A) (A) (A) (A) (A) (A) (A) (A)
                 (A) (A) (A) (A) (A) (A) (A) (A) (A) (A) (A) (A)
                 (A) (A) (A) (A) (A) (A) (A) (A) (A) (A) (A) (A)
                 (A) (A) (A) (A) (A) (A) (A) (A) (A) (A) (A) (A)
                 (A) (A) (A) (A) (A) (A) (A) (A) (A) (A) (A) (A)
                 (A) (A) (A) (A) (A) (A) (A) (A) (A) (A) (A) (A)
                 (A) (A) (A) (A) (A) (A) (A) (A) (A) (A) (A) (A)
                 (A) (A) (A) (A) (A) (A) (A) (A) (A) (A) (A) (A)
                 (A) (A) (A) (A) (A) (A) (A) (A) (A) (A) (A) (A)
                 (A) (A) (A) (A) (A) (A) (A) (A) (A) (A) (A) (A)
                 (A) (A) (A) (A) (A) (A) (A) (A) (A) (A) (A) (A)
                 (A) (A) (A) (A) (A) (A) (A) (A) (A) (A) (A) (A)
                 (A) (A) (A) (A) (A) (A) (A) (A) (A) (A) (A) (A)
                 (A) (A) (A) (A) (A) (A) (A) (A) (A) (A) (A) (A)
                 (A) (A) (A) (A) (A) (A) (A) (A) (A) (A) (A) (A)
                 (A) (A) (A) (A) (A) (A) (A) (A) (A) (A) (A) (A)
                 (A) (A) (A) (A) (A) (A) (A) (A) (A) (A) (A) (A)
                 (A) (A) (A) (A) (A) (A) (A) (A) (A) (A) (A) (A)
                 (A) (A) (A) (A) (A) (A) (A) (A) (A) (A) (A) (A)
                 (A) (A) (A) (A) (A) (A) (A)
    64 initial guesses have been made.
 Convergence on wavefunction:    0.001000000000000
 Iteration     1 Dimension    64 NMult     0 NNew     64
 CISAX will form    64 AO SS matrices at one time.
 New state      3 was old state      6
 New state      4 was old state      5
 New state      5 was old state      4
 New state      6 was old state      9
 New state      7 was old state      8
 New state      8 was old state      7
 New state      9 was old state     11
 New state     11 was old state     13
 New state     12 was old state     14
 New state     13 was old state     19
 New state     14 was old state     15
 New state     15 was old state     16
 New state     16 was old state     20
 Iteration     2 Dimension    96 NMult    64 NNew     32
 New state      5 was old state      6
 New state      6 was old state      5
 New state     14 was old state     15
 New state     15 was old state     14
 Iteration     3 Dimension   128 NMult    96 NNew     32
 Iteration     4 Dimension   160 NMult   128 NNew     32
 Iteration     5 Dimension   178 NMult   160 NNew     18
 Iteration     6 Dimension   184 NMult   178 NNew      6
 ***********************************************************************
 Excited states from <AA,BB:AA,BB> singles matrix:
 ***********************************************************************
 
 Ground to excited state transition densities written to RWF  633
 Ground to excited state transition electric dipole moments (Au):
       state          X           Y           Z        Dip. S.      Osc.
         1         1.2673      0.5777     -0.0000      1.9397      0.1716
         2        -0.0000      0.0001      0.1110      0.0123      0.0012
         3         0.0000      0.0000      0.2297      0.0527      0.0053
         4         0.0265      0.3316     -0.0000      0.1107      0.0116
         5         0.0012      0.0003      0.0406      0.0016      0.0002
         6         0.6930      0.2276     -0.0000      0.5321      0.0580
         7         0.0002     -0.0003      0.3428      0.1175      0.0138
         8        -0.3292      0.6271      0.0003      0.5016      0.0593
         9        -0.0002      0.0002     -0.1373      0.0189      0.0023
        10        -0.2147      0.1165     -0.0001      0.0596      0.0073
        11        -0.0813      0.1319     -0.0001      0.0240      0.0031
        12         1.0620     -0.0403     -0.0002      1.1294      0.1504
        13         0.0001     -0.0001      0.8109      0.6575      0.0898
        14        -0.0014      0.0024      0.5125      0.2627      0.0368
        15        -0.3981      0.7649     -0.0022      0.7436      0.1045
        16         0.0010     -0.0009      0.4035      0.1628      0.0230
 Ground to excited state transition velocity dipole moments (Au):
       state          X           Y           Z        Dip. S.      Osc.
         1        -0.1804     -0.0779      0.0000      0.0386      0.1940
         2         0.0000     -0.0000     -0.0194      0.0004      0.0018
         3        -0.0000     -0.0000     -0.0281      0.0008      0.0035
         4        -0.0134     -0.0500      0.0000      0.0027      0.0114
         5        -0.0002     -0.0001     -0.0043      0.0000      0.0001
         6        -0.1238     -0.0405     -0.0000      0.0170      0.0692
         7        -0.0000      0.0001     -0.0635      0.0040      0.0153
         8         0.0496     -0.1113     -0.0001      0.0148      0.0558
         9         0.0000     -0.0000      0.0258      0.0007      0.0025
        10         0.0381     -0.0128      0.0000      0.0016      0.0059
        11         0.0092     -0.0162      0.0000      0.0003      0.0012
        12        -0.2100      0.0106      0.0000      0.0442      0.1476
        13        -0.0000      0.0000     -0.1618      0.0262      0.0852
        14         0.0003     -0.0005     -0.1081      0.0117      0.0371
        15         0.0803     -0.1573      0.0005      0.0312      0.0987
        16        -0.0002      0.0002     -0.0892      0.0080      0.0250
 Ground to excited state transition magnetic dipole moments (Au):
       state          X           Y           Z
         1         0.1390     -0.0763     -0.0000
         2         0.0000      0.0001     -0.4787
         3         0.0000      0.0002     -0.7911
         4        -0.2064      0.3191      0.0001
         5        -0.0001     -0.0001     -0.0318
         6        -0.0699     -0.0575      0.0001
         7         0.0001     -0.0003     -0.7998
         8        -0.1560      0.4526     -0.0007
         9        -0.0001      0.0002      0.3577
        10        -0.0778      0.0310      0.0001
        11         0.0039      0.1783     -0.0000
        12         0.3919     -0.8245      0.0003
        13         0.0001     -0.0002     -1.5128
        14        -0.0005      0.0015     -0.8527
        15        -0.1215      0.5171      0.0037
        16         0.0002     -0.0007     -0.4542
 Ground to excited state transition velocity quadrupole moments (Au):
       state          XX          YY          ZZ          XY          XZ          YZ
         1        -0.0000     -0.0000      0.0000      0.0000      0.1333     -0.2201
         2        -0.0607     -0.0819      0.0056     -0.1208     -0.0000     -0.0000
         3        -0.7005     -0.1459      0.0082     -0.5203     -0.0000      0.0000
         4         0.0000      0.0000      0.0001      0.0001     -0.0942     -0.0011
         5         0.6612     -0.0679     -0.0091      0.1443      0.0003      0.0000
         6        -0.0010      0.0001      0.0000     -0.0002      0.1367     -0.0127
         7         0.2836     -0.1214     -0.0075     -0.2640      0.0001      0.0000
         8         0.0003     -0.0001      0.0000     -0.0002     -0.2699     -0.0331
         9        -0.1616      0.0807     -0.0022      0.1237     -0.0001     -0.0000
        10        -0.0001      0.0000      0.0000     -0.0000     -0.1643     -0.0434
        11        -0.0000      0.0000      0.0000      0.0000     -0.0610     -0.0345
        12        -0.0003      0.0000      0.0000      0.0001      0.2855     -0.4583
        13         1.3893     -0.2995      0.0375     -0.7594      0.0001     -0.0000
        14         1.1818     -0.1538      0.0521     -0.3512     -0.0017     -0.0000
        15        -0.0048      0.0007     -0.0002      0.0016     -0.5261     -0.0161
        16         0.5312     -0.2980     -0.0822     -0.5180      0.0008      0.0000
 <0|del|b> * <b|rxdel|0> + <0|del|b> * <b|delr+rdel|0>
 Rotatory Strengths (R) in cgs (10**-40 erg-esu-cm/Gauss)
       state          XX          YY          ZZ    R(velocity)    E-M Angle
         1        43.5100     39.0004   -184.4342    -33.9746      127.87
         2        29.0588     17.3470     -0.0000     15.4686       90.00
         3        86.6693     17.8958     -0.0000     34.8550       90.00
         4       -46.6759      6.2740    -19.1888    -19.8636      132.12
         5        -1.0463      1.6384      0.0000      0.1974       90.00
         6        17.0097     22.1495      8.3895     15.8495       21.34
         7       135.7542     68.3675     -0.0000     68.0406       90.00
         8      -160.2603    -18.7102    -52.7010    -77.2238      174.97
         9        24.3359     11.8260     -0.0000     12.0540       90.00
        10        -4.8223     -8.9271      0.7587     -4.3302      176.77
        11        -7.1867     -0.5178     -2.8721     -3.5255      149.32
        12       -20.7985     24.6940   -326.1609   -107.4218      118.31
        13       634.7500    210.4552     -0.0000    281.7351       90.00
        14       218.8063     91.1373     -0.0001    103.3145        0.40
        15      -275.3376    -18.5328    -11.8394   -101.9033      166.18
        16       144.6285     -9.4907     -0.0000     45.0459        0.26
 1/2[<0|r|b>*<b|rxdel|0> + (<0|rxdel|b>*<b|r|0>)*]
 Rotatory Strengths (R) in cgs (10**-40 erg-esu-cm/Gauss)
       state          XX          YY          ZZ     R(length)
         1      -124.5324     31.1778     -0.0000    -31.1182
         2         0.0000     -0.0000     37.5641     12.5214
         3        -0.0000     -0.0000    128.4771     42.8257
         4         3.8635    -74.8326      0.0000    -23.6564
         5         0.0001      0.0000      0.9129      0.3043
         6        34.2774      9.2619      0.0000     14.5131
         7        -0.0000     -0.0001    193.8969     64.6323
         8       -36.3088   -200.7227      0.0001    -79.0105
         9        -0.0000     -0.0000     34.7401     11.5800
        10       -11.8087     -2.5576      0.0000     -4.7887
        11         0.2253    -16.6365     -0.0000     -5.4704
        12      -294.2851    -23.4797      0.0000   -105.9216
        13        -0.0000     -0.0000    867.4872    289.1624
        14        -0.0004     -0.0026    309.0517    103.0162
        15       -34.2155   -279.7163      0.0057   -104.6420
        16        -0.0001     -0.0004    129.6055     43.2016
  1/2[<0|del|b>*<b|r|0> + (<0|r|b>*<b|del|0>)*] (Au)
       state          X           Y           Z        Dip. S.   Osc.(frdel)
         1        -0.2286     -0.0450     -0.0000      0.2737      0.1824
         2        -0.0000     -0.0000     -0.0022      0.0022      0.0014
         3        -0.0000     -0.0000     -0.0065      0.0065      0.0043
         4        -0.0004     -0.0166     -0.0000      0.0169      0.0113
         5        -0.0000     -0.0000     -0.0002      0.0002      0.0001
         6        -0.0858     -0.0092      0.0000      0.0950      0.0633
         7        -0.0000     -0.0000     -0.0218      0.0218      0.0145
         8        -0.0163     -0.0698     -0.0000      0.0861      0.0574
         9        -0.0000     -0.0000     -0.0035      0.0035      0.0024
        10        -0.0082     -0.0015     -0.0000      0.0097      0.0064
        11        -0.0007     -0.0021     -0.0000      0.0029      0.0019
        12        -0.2230     -0.0004     -0.0000      0.2235      0.1490
        13        -0.0000     -0.0000     -0.1312      0.1312      0.0875
        14        -0.0000     -0.0000     -0.0554      0.0554      0.0370
        15        -0.0320     -0.1203     -0.0000      0.1523      0.1015
        16        -0.0000     -0.0000     -0.0360      0.0360      0.0240

 Excitation energies and oscillator strengths:
 
 Excited State   1:      Singlet-A      3.6110 eV  343.36 nm  f=0.1716  <S**2>=0.000
      75 -> 76         0.69471
 This state for optimization and/or second-order correction.
 Total Energy, E(TD-HF/TD-DFT) =  -920.877840522    
 Copying the excited state density for this state as the 1-particle RhoCI density.
 
 Excited State   2:      Singlet-A      3.8527 eV  321.81 nm  f=0.0012  <S**2>=0.000
      74 -> 76         0.59324
      75 -> 77        -0.37324
 
 Excited State   3:      Singlet-A      4.0933 eV  302.90 nm  f=0.0053  <S**2>=0.000
      72 -> 76         0.15160
      72 -> 78         0.10885
      74 -> 76         0.32251
      75 -> 77         0.56347
      75 -> 79         0.14131
 
 Excited State   4:      Singlet-A      4.2609 eV  290.98 nm  f=0.0116  <S**2>=0.000
      72 -> 77         0.12193
      73 -> 76        -0.38751
      74 -> 77         0.40477
      74 -> 79         0.13009
      75 -> 78        -0.37157
 
 Excited State   5:      Singlet-A      4.4295 eV  279.91 nm  f=0.0002  <S**2>=0.000
      72 -> 76         0.52214
      73 -> 77        -0.11754
      74 -> 76        -0.16583
      74 -> 78        -0.18256
      75 -> 77        -0.15986
      75 -> 79         0.34967
 
 Excited State   6:      Singlet-A      4.4457 eV  278.89 nm  f=0.0580  <S**2>=0.000
      73 -> 76         0.42024
      74 -> 77         0.53313
      75 -> 78         0.14429
 
 Excited State   7:      Singlet-A      4.7845 eV  259.14 nm  f=0.0138  <S**2>=0.000
      72 -> 76         0.36864
      73 -> 77         0.46069
      75 -> 79        -0.37619
 
 Excited State   8:      Singlet-A      4.8265 eV  256.88 nm  f=0.0593  <S**2>=0.000
      72 -> 77        -0.37310
      73 -> 76        -0.32334
      74 -> 77         0.14192
      74 -> 79         0.17922
      75 -> 78         0.44077
 
 Excited State   9:      Singlet-A      4.9164 eV  252.19 nm  f=0.0023  <S**2>=0.000
      73 -> 77         0.30228
      74 -> 78         0.52870
      75 -> 79         0.34435
 
 Excited State  10:      Singlet-A      4.9748 eV  249.22 nm  f=0.0073  <S**2>=0.000
      72 -> 77         0.43382
      74 -> 79         0.49052
      75 -> 78         0.22591
 
 Excited State  11:      Singlet-A      5.1998 eV  238.44 nm  f=0.0031  <S**2>=0.000
      71 -> 76         0.59127
      72 -> 77         0.11345
      75 -> 80        -0.35511
 
 Excited State  12:      Singlet-A      5.4356 eV  228.10 nm  f=0.1504  <S**2>=0.000
      71 -> 76         0.34810
      74 -> 79         0.13588
      75 -> 80         0.57307
 
 Excited State  13:      Singlet-A      5.5736 eV  222.45 nm  f=0.0898  <S**2>=0.000
      70 -> 76         0.26678
      71 -> 77         0.35739
      72 -> 76         0.11640
      73 -> 77        -0.23688
      74 -> 78         0.22023
      74 -> 80        -0.25957
      75 -> 79        -0.13437
      75 -> 81        -0.28061
 
 Excited State  14:      Singlet-A      5.7250 eV  216.57 nm  f=0.0368  <S**2>=0.000
      71 -> 77        -0.26126
      72 -> 78         0.50893
      73 -> 79        -0.18222
      74 -> 78         0.16922
      74 -> 80        -0.17300
      75 -> 79        -0.11439
      75 -> 81         0.20460
 
 Excited State  15:      Singlet-A      5.7340 eV  216.22 nm  f=0.1045  <S**2>=0.000
      72 -> 77         0.12600
      72 -> 79        -0.39954
      73 -> 78         0.53137
      74 -> 79        -0.13314
      75 -> 78         0.10387
 
 Excited State  16:      Singlet-A      5.7708 eV  214.85 nm  f=0.0230  <S**2>=0.000
      73 -> 77        -0.11111
      73 -> 79        -0.39466
      74 -> 80         0.50431
      75 -> 81        -0.19408
 SavETr:  write IOETrn=   770 NScale= 10 NData=  16 NLR=1 NState=   16 LETran=     298.

 **********************************************************************

            Population analysis using the SCF Density.

 **********************************************************************

 Orbital symmetries:
       Occupied  (A) (A) (A) (A) (A) (A) (A) (A) (A) (A) (A) (A)
                 (A) (A) (A) (A) (A) (A) (A) (A) (A) (A) (A) (A)
                 (A) (A) (A) (A) (A) (A) (A) (A) (A) (A) (A) (A)
                 (A) (A) (A) (A) (A) (A) (A) (A) (A) (A) (A) (A)
                 (A) (A) (A) (A) (A) (A) (A) (A) (A) (A) (A) (A)
                 (A) (A) (A) (A) (A) (A) (A) (A) (A) (A) (A) (A)
                 (A) (A) (A)
       Virtual   (A) (A) (A) (A) (A) (A) (A) (A) (A) (A) (A) (A)
                 (A) (A) (A) (A) (A) (A) (A) (A) (A) (A) (A) (A)
                 (A) (A) (A) (A) (A) (A) (A) (A) (A) (A) (A) (A)
                 (A) (A) (A) (A) (A) (A) (A) (A) (A) (A) (A) (A)
                 (A) (A) (A) (A) (A) (A) (A) (A) (A) (A) (A) (A)
                 (A) (A) (A) (A) (A) (A) (A) (A) (A) (A) (A) (A)
                 (A) (A) (A) (A) (A) (A) (A) (A) (A) (A) (A) (A)
                 (A) (A) (A) (A) (A) (A) (A) (A) (A) (A) (A) (A)
                 (A) (A) (A) (A) (A) (A) (A) (A) (A) (A) (A) (A)
                 (A) (A) (A) (A) (A) (A) (A) (A) (A) (A) (A) (A)
                 (A) (A) (A) (A) (A) (A) (A) (A) (A) (A) (A) (A)
                 (A) (A) (A) (A) (A) (A) (A) (A) (A) (A) (A) (A)
                 (A) (A) (A) (A) (A) (A) (A) (A) (A) (A) (A) (A)
                 (A) (A) (A) (A) (A) (A) (A) (A) (A) (A) (A) (A)
                 (A) (A) (A) (A) (A) (A) (A) (A) (A) (A) (A) (A)
                 (A) (A) (A) (A) (A) (A) (A) (A) (A) (A) (A) (A)
                 (A) (A) (A) (A) (A) (A) (A) (A) (A) (A) (A) (A)
                 (A) (A) (A) (A) (A) (A) (A) (A) (A) (A) (A) (A)
                 (A) (A) (A) (A) (A) (A) (A) (A) (A) (A) (A) (A)
                 (A) (A) (A) (A) (A) (A) (A) (A) (A) (A) (A) (A)
                 (A) (A) (A) (A) (A) (A) (A) (A) (A) (A) (A) (A)
                 (A) (A) (A) (A) (A) (A) (A) (A) (A) (A) (A) (A)
                 (A) (A) (A) (A) (A) (A) (A) (A) (A) (A) (A) (A)
                 (A) (A) (A) (A) (A) (A) (A)
 The electronic state is 1-A.
 Alpha  occ. eigenvalues --  -19.17507 -19.17507 -10.24652 -10.24651 -10.19333
 Alpha  occ. eigenvalues --  -10.19333 -10.19163 -10.19163 -10.19097 -10.19097
 Alpha  occ. eigenvalues --  -10.19033 -10.19006 -10.18812 -10.18812 -10.18222
 Alpha  occ. eigenvalues --  -10.18222 -10.18074 -10.18073 -10.17970 -10.17970
 Alpha  occ. eigenvalues --  -10.17616 -10.17615  -1.05717  -1.05602  -0.86923
 Alpha  occ. eigenvalues --   -0.85906  -0.81373  -0.80858  -0.78651  -0.75055
 Alpha  occ. eigenvalues --   -0.72950  -0.72932  -0.71874  -0.70388  -0.62988
 Alpha  occ. eigenvalues --   -0.62538  -0.61086  -0.61021  -0.59711  -0.56700
 Alpha  occ. eigenvalues --   -0.54643  -0.54456  -0.51596  -0.50125  -0.48994
 Alpha  occ. eigenvalues --   -0.48799  -0.46368  -0.46295  -0.44259  -0.43147
 Alpha  occ. eigenvalues --   -0.42409  -0.42217  -0.41568  -0.41462  -0.41438
 Alpha  occ. eigenvalues --   -0.39745  -0.39270  -0.39180  -0.38734  -0.36641
 Alpha  occ. eigenvalues --   -0.36098  -0.35736  -0.35123  -0.34130  -0.33852
 Alpha  occ. eigenvalues --   -0.33150  -0.31327  -0.30323  -0.29898  -0.28062
 Alpha  occ. eigenvalues --   -0.25709  -0.22726  -0.22556  -0.20462  -0.19035
 Alpha virt. eigenvalues --   -0.03949  -0.02215   0.00366   0.00705   0.03221
 Alpha virt. eigenvalues --    0.04953   0.07012   0.07034   0.10078   0.10433
 Alpha virt. eigenvalues --    0.10892   0.11449   0.11956   0.12041   0.14385
 Alpha virt. eigenvalues --    0.15455   0.17533   0.17564   0.18775   0.19029
 Alpha virt. eigenvalues --    0.19985   0.20075   0.20495   0.21537   0.22885
 Alpha virt. eigenvalues --    0.24326   0.26206   0.27514   0.27742   0.29496
 Alpha virt. eigenvalues --    0.31000   0.31959   0.32377   0.32527   0.33478
 Alpha virt. eigenvalues --    0.34737   0.36531   0.36844   0.36959   0.39975
 Alpha virt. eigenvalues --    0.40892   0.48287   0.49652   0.50090   0.50384
 Alpha virt. eigenvalues --    0.51380   0.51391   0.52404   0.52556   0.53771
 Alpha virt. eigenvalues --    0.53895   0.54470   0.55283   0.55507   0.56036
 Alpha virt. eigenvalues --    0.56056   0.56640   0.57087   0.57102   0.59415
 Alpha virt. eigenvalues --    0.59726   0.60222   0.60568   0.60943   0.60945
 Alpha virt. eigenvalues --    0.61683   0.62093   0.62160   0.62917   0.62941
 Alpha virt. eigenvalues --    0.63120   0.63646   0.63824   0.64801   0.65122
 Alpha virt. eigenvalues --    0.66847   0.67162   0.67400   0.67542   0.68677
 Alpha virt. eigenvalues --    0.70765   0.71834   0.74144   0.75748   0.77363
 Alpha virt. eigenvalues --    0.79275   0.80239   0.81959   0.82204   0.83936
 Alpha virt. eigenvalues --    0.84080   0.84612   0.84776   0.85199   0.86170
 Alpha virt. eigenvalues --    0.86200   0.87293   0.88049   0.88178   0.89014
 Alpha virt. eigenvalues --    0.89326   0.90594   0.90674   0.91624   0.93197
 Alpha virt. eigenvalues --    0.94341   0.95066   0.95236   0.95595   0.98247
 Alpha virt. eigenvalues --    0.98506   1.00145   1.01846   1.02996   1.03543
 Alpha virt. eigenvalues --    1.03962   1.06194   1.06216   1.07514   1.08506
 Alpha virt. eigenvalues --    1.09902   1.10727   1.12596   1.12879   1.15917
 Alpha virt. eigenvalues --    1.16662   1.17912   1.19381   1.21931   1.22991
 Alpha virt. eigenvalues --    1.24637   1.25957   1.27209   1.27831   1.27932
 Alpha virt. eigenvalues --    1.29803   1.30729   1.32162   1.33615   1.36416
 Alpha virt. eigenvalues --    1.36536   1.40256   1.40415   1.41194   1.42036
 Alpha virt. eigenvalues --    1.42938   1.43836   1.46241   1.47315   1.47510
 Alpha virt. eigenvalues --    1.47771   1.48377   1.48859   1.50167   1.50297
 Alpha virt. eigenvalues --    1.51192   1.51398   1.51515   1.52233   1.55398
 Alpha virt. eigenvalues --    1.61087   1.64837   1.69951   1.71665   1.74669
 Alpha virt. eigenvalues --    1.75796   1.77259   1.77674   1.77801   1.79058
 Alpha virt. eigenvalues --    1.79251   1.79663   1.81058   1.83779   1.84770
 Alpha virt. eigenvalues --    1.86022   1.87325   1.89817   1.90983   1.91495
 Alpha virt. eigenvalues --    1.91954   1.92188   1.93397   1.93551   1.94997
 Alpha virt. eigenvalues --    1.95239   1.98275   1.98319   2.00537   2.00674
 Alpha virt. eigenvalues --    2.02264   2.02532   2.05393   2.05553   2.06445
 Alpha virt. eigenvalues --    2.07042   2.07277   2.08100   2.14528   2.15285
 Alpha virt. eigenvalues --    2.16530   2.17282   2.20607   2.20920   2.21821
 Alpha virt. eigenvalues --    2.22644   2.24416   2.26884   2.27682   2.28867
 Alpha virt. eigenvalues --    2.31564   2.31686   2.33561   2.34284   2.34583
 Alpha virt. eigenvalues --    2.34624   2.35013   2.35588   2.37159   2.38632
 Alpha virt. eigenvalues --    2.39860   2.40120   2.47385   2.47855   2.50534
 Alpha virt. eigenvalues --    2.51726   2.58343   2.58602   2.60549   2.61176
 Alpha virt. eigenvalues --    2.62115   2.63914   2.64601   2.65029   2.65772
 Alpha virt. eigenvalues --    2.66217   2.67912   2.67944   2.70097   2.75015
 Alpha virt. eigenvalues --    2.76073   2.76572   2.80175   2.81289   2.83490
 Alpha virt. eigenvalues --    2.85135   2.87728   2.88311   2.88483   2.90039
 Alpha virt. eigenvalues --    2.92237   2.97305   3.02760   3.05559   3.06829
 Alpha virt. eigenvalues --    3.15256   3.19182   3.36343   3.39406   3.47351
 Alpha virt. eigenvalues --    3.50297   3.95912   4.06617   4.09894   4.10090
 Alpha virt. eigenvalues --    4.10888   4.11375   4.14578   4.15631   4.16168
 Alpha virt. eigenvalues --    4.16595   4.22760   4.30096   4.30877   4.31699
 Alpha virt. eigenvalues --    4.41195   4.41924   4.43733   4.49579   4.58439
 Alpha virt. eigenvalues --    4.64219   4.81541   4.90766
          Condensed to atoms (all electrons):
               1          2          3          4          5          6
     1  C    4.905984   0.517270  -0.000105  -0.038568  -0.020632   0.493675
     2  C    0.517270   5.122350   0.448113  -0.050609  -0.069378  -0.019683
     3  C   -0.000105   0.448113   4.785599   0.446288  -0.026170  -0.039099
     4  C   -0.038568  -0.050609   0.446288   4.765120   0.450465  -0.005418
     5  C   -0.020632  -0.069378  -0.026170   0.450465   5.094546   0.519160
     6  C    0.493675  -0.019683  -0.039099  -0.005418   0.519160   4.909452
     7  H    0.356835  -0.037724   0.002836   0.001018   0.004461  -0.042927
     8  H   -0.046950   0.344400  -0.030315   0.005721   0.000507   0.004604
     9  C    0.008141  -0.089349   0.410324  -0.014387   0.014185  -0.000671
    10  C   -0.000636   0.016108  -0.018879   0.428966  -0.089767   0.008369
    11  H    0.004706   0.000496   0.004292  -0.043657   0.354147  -0.045801
    12  H   -0.041035   0.004171   0.001029   0.002772  -0.037400   0.355845
    13  C    0.000069  -0.001229  -0.055432   0.004216   0.009360  -0.000422
    14  C   -0.000302   0.013004   0.015854  -0.058339  -0.000822   0.000043
    15  H    0.000015  -0.000202   0.004347  -0.036897  -0.008246   0.000193
    16  H   -0.000000   0.000015   0.001072   0.002194  -0.000206   0.000004
    17  C    0.000000   0.000000  -0.000001   0.000000  -0.000000  -0.000000
    18  C   -0.000000   0.000001  -0.000001  -0.000000   0.000000  -0.000000
    19  C   -0.000002   0.000017   0.000021   0.000000  -0.000000   0.000000
    20  C    0.000040  -0.000159   0.000377   0.000021  -0.000001  -0.000001
    21  C   -0.000001   0.000011  -0.000159   0.000017   0.000001   0.000000
    22  C   -0.000000  -0.000001   0.000040  -0.000002  -0.000000   0.000000
    23  H   -0.000000  -0.000000   0.000000   0.000000  -0.000000   0.000000
    24  H   -0.000000  -0.000000   0.000000  -0.000000  -0.000000   0.000000
    25  H   -0.000000  -0.000000  -0.000000   0.000000  -0.000000   0.000000
    26  C    0.000000  -0.000054   0.000011   0.000000  -0.000000   0.000000
    27  C    0.001192  -0.024053  -0.056596   0.008717  -0.000069  -0.000022
    28  H    0.000002  -0.000016  -0.000098  -0.000042  -0.000003   0.000000
    29  H   -0.000000  -0.000000  -0.000000   0.000000   0.000000   0.000000
    30  C    0.000008   0.000139  -0.008806  -0.000025  -0.000018  -0.000002
    31  C   -0.000033  -0.000895   0.000821   0.000010  -0.000000   0.000000
    32  H    0.000000   0.000018  -0.000009  -0.000000   0.000000  -0.000000
    33  O    0.000000  -0.000051   0.002358   0.000221  -0.000000  -0.000000
    34  H   -0.000000   0.000006   0.000130  -0.000116  -0.000001   0.000000
    35  O   -0.000387   0.003578  -0.004861  -0.000447   0.000001   0.000007
    36  H    0.000028   0.000147   0.000054   0.000007  -0.000000  -0.000001
               7          8          9         10         11         12
     1  C    0.356835  -0.046950   0.008141  -0.000636   0.004706  -0.041035
     2  C   -0.037724   0.344400  -0.089349   0.016108   0.000496   0.004171
     3  C    0.002836  -0.030315   0.410324  -0.018879   0.004292   0.001029
     4  C    0.001018   0.005721  -0.014387   0.428966  -0.043657   0.002772
     5  C    0.004461   0.000507   0.014185  -0.089767   0.354147  -0.037400
     6  C   -0.042927   0.004604  -0.000671   0.008369  -0.045801   0.355845
     7  H    0.602681  -0.005712  -0.000186   0.000009  -0.000199  -0.004831
     8  H   -0.005712   0.593265  -0.015892  -0.000191   0.000019  -0.000187
     9  C   -0.000186  -0.015892   5.284416  -0.065887  -0.000163   0.000014
    10  C    0.000009  -0.000191  -0.065887   5.141919  -0.008870  -0.000199
    11  H   -0.000199   0.000019  -0.000163  -0.008870   0.609228  -0.005447
    12  H   -0.004831  -0.000187   0.000014  -0.000199  -0.005447   0.600870
    13  C   -0.000001   0.000016  -0.037796   0.445500   0.000326   0.000004
    14  C    0.000003  -0.000047   0.431070   0.013296   0.000008  -0.000000
    15  H   -0.000000   0.000002   0.000744   0.349179   0.006788  -0.000013
    16  H   -0.000000   0.000000   0.003911  -0.027513  -0.000012  -0.000000
    17  C    0.000000   0.000000  -0.000022   0.000000   0.000000   0.000000
    18  C    0.000000  -0.000003  -0.000069  -0.000000  -0.000000  -0.000000
    19  C    0.000000  -0.000042   0.008716   0.000000   0.000000  -0.000000
    20  C   -0.000000  -0.000099  -0.056602   0.000011  -0.000000   0.000000
    21  C   -0.000000  -0.000016  -0.024047  -0.000054  -0.000000  -0.000000
    22  C   -0.000000   0.000002   0.001192   0.000000  -0.000000  -0.000000
    23  H   -0.000000  -0.000001   0.000011  -0.000000   0.000000   0.000000
    24  H   -0.000000  -0.000000   0.000000   0.000000  -0.000000   0.000000
    25  H    0.000000   0.000000   0.000001  -0.000000   0.000000  -0.000000
    26  C   -0.000000   0.000003  -0.000934   0.000000  -0.000000   0.000000
    27  C   -0.000004   0.008859   0.268394  -0.000934   0.000001   0.000000
    28  H   -0.000000  -0.000006   0.008854   0.000003   0.000000  -0.000000
    29  H    0.000000  -0.000000  -0.000004  -0.000000   0.000000  -0.000000
    30  C    0.000006   0.007945  -0.062601   0.000046   0.000000   0.000000
    31  C   -0.000000   0.001499   0.007799  -0.000000   0.000000   0.000000
    32  H    0.000000   0.000012  -0.000141   0.000000  -0.000000  -0.000000
    33  O   -0.000000  -0.000001  -0.060013   0.004975  -0.000000   0.000000
    34  H    0.000000   0.000000   0.007060   0.000919  -0.000000  -0.000000
    35  O   -0.000009  -0.003073   0.002227   0.000011   0.000000   0.000000
    36  H    0.000000   0.000203  -0.000357  -0.000000  -0.000000  -0.000000
              13         14         15         16         17         18
     1  C    0.000069  -0.000302   0.000015  -0.000000   0.000000  -0.000000
     2  C   -0.001229   0.013004  -0.000202   0.000015   0.000000   0.000001
     3  C   -0.055432   0.015854   0.004347   0.001072  -0.000001  -0.000001
     4  C    0.004216  -0.058339  -0.036897   0.002194   0.000000  -0.000000
     5  C    0.009360  -0.000822  -0.008246  -0.000206  -0.000000   0.000000
     6  C   -0.000422   0.000043   0.000193   0.000004  -0.000000  -0.000000
     7  H   -0.000001   0.000003  -0.000000  -0.000000   0.000000   0.000000
     8  H    0.000016  -0.000047   0.000002   0.000000   0.000000  -0.000003
     9  C   -0.037796   0.431070   0.000744   0.003911  -0.000022  -0.000069
    10  C    0.445500   0.013296   0.349179  -0.027513   0.000000  -0.000000
    11  H    0.000326   0.000008   0.006788  -0.000012   0.000000  -0.000000
    12  H    0.000004  -0.000000  -0.000013  -0.000000   0.000000  -0.000000
    13  C    5.182747   0.411052  -0.039877   0.339864   0.000000  -0.000000
    14  C    0.411052   4.736101   0.002990  -0.041400  -0.000002  -0.000018
    15  H   -0.039877   0.002990   0.594705  -0.005331   0.000000  -0.000000
    16  H    0.339864  -0.041400  -0.005331   0.605884  -0.000000   0.000000
    17  C    0.000000  -0.000002   0.000000  -0.000000   4.909437   0.519162
    18  C   -0.000000  -0.000018  -0.000000   0.000000   0.519162   5.094575
    19  C    0.000010  -0.000025   0.000000  -0.000000  -0.005413   0.450459
    20  C    0.000820  -0.008801   0.000000  -0.000009  -0.039100  -0.026169
    21  C   -0.000894   0.000137  -0.000000   0.000018  -0.019681  -0.069383
    22  C   -0.000033   0.000008  -0.000000   0.000000   0.493672  -0.020631
    23  H    0.000000  -0.000000  -0.000000  -0.000000   0.000193  -0.008245
    24  H    0.000000   0.000000   0.000000  -0.000000   0.355845  -0.037401
    25  H    0.000000   0.000000   0.000000  -0.000000  -0.045801   0.354146
    26  C   -0.000000   0.000046  -0.000000   0.000000   0.008369  -0.089780
    27  C    0.007800  -0.062599   0.000011  -0.000141  -0.000671   0.014186
    28  H    0.001498   0.007944  -0.000001   0.000012   0.004603   0.000507
    29  H   -0.000000   0.000006  -0.000000   0.000000  -0.042927   0.004461
    30  C   -0.000213   0.003785  -0.000000   0.000001   0.000043  -0.000822
    31  C    0.000003  -0.000213   0.000000  -0.000000  -0.000422   0.009360
    32  H   -0.000000   0.000001  -0.000000   0.000000   0.000004  -0.000206
    33  O   -0.063765   0.277832  -0.000059  -0.005438   0.000007   0.000001
    34  H   -0.006149  -0.032226  -0.000016   0.008201  -0.000001  -0.000000
    35  O   -0.000017  -0.000353   0.000000   0.000000  -0.000000  -0.000000
    36  H   -0.000000   0.000018  -0.000000   0.000000   0.000000  -0.000001
              19         20         21         22         23         24
     1  C   -0.000002   0.000040  -0.000001  -0.000000  -0.000000  -0.000000
     2  C    0.000017  -0.000159   0.000011  -0.000001  -0.000000  -0.000000
     3  C    0.000021   0.000377  -0.000159   0.000040   0.000000   0.000000
     4  C    0.000000   0.000021   0.000017  -0.000002   0.000000  -0.000000
     5  C   -0.000000  -0.000001   0.000001  -0.000000  -0.000000  -0.000000
     6  C    0.000000  -0.000001   0.000000   0.000000   0.000000   0.000000
     7  H    0.000000  -0.000000  -0.000000  -0.000000  -0.000000  -0.000000
     8  H   -0.000042  -0.000099  -0.000016   0.000002  -0.000001  -0.000000
     9  C    0.008716  -0.056602  -0.024047   0.001192   0.000011   0.000000
    10  C    0.000000   0.000011  -0.000054   0.000000  -0.000000   0.000000
    11  H    0.000000  -0.000000  -0.000000  -0.000000   0.000000  -0.000000
    12  H   -0.000000   0.000000  -0.000000  -0.000000   0.000000   0.000000
    13  C    0.000010   0.000820  -0.000894  -0.000033   0.000000   0.000000
    14  C   -0.000025  -0.008801   0.000137   0.000008  -0.000000   0.000000
    15  H    0.000000   0.000000  -0.000000  -0.000000  -0.000000   0.000000
    16  H   -0.000000  -0.000009   0.000018   0.000000  -0.000000  -0.000000
    17  C   -0.005413  -0.039100  -0.019681   0.493672   0.000193   0.355845
    18  C    0.450459  -0.026169  -0.069383  -0.020631  -0.008245  -0.037401
    19  C    4.765097   0.446303  -0.050622  -0.038567  -0.036894   0.002772
    20  C    0.446303   4.785589   0.448118  -0.000101   0.004348   0.001029
    21  C   -0.050622   0.448118   5.122338   0.517258  -0.000202   0.004171
    22  C   -0.038567  -0.000101   0.517258   4.906000   0.000015  -0.041035
    23  H   -0.036894   0.004348  -0.000202   0.000015   0.594707  -0.000013
    24  H    0.002772   0.001029   0.004171  -0.041035  -0.000013   0.600874
    25  H   -0.043656   0.004292   0.000496   0.004706   0.006788  -0.005448
    26  C    0.428952  -0.018875   0.016109  -0.000636   0.349176  -0.000199
    27  C   -0.014389   0.410347  -0.089346   0.008141   0.000744   0.000014
    28  H    0.005721  -0.030316   0.344403  -0.046942   0.000002  -0.000187
    29  H    0.001018   0.002835  -0.037722   0.356835  -0.000000  -0.004831
    30  C   -0.058332   0.015841   0.013005  -0.000302   0.002990  -0.000000
    31  C    0.004224  -0.055432  -0.001230   0.000069  -0.039878   0.000004
    32  H    0.002194   0.001073   0.000015  -0.000000  -0.005331  -0.000000
    33  O   -0.000446  -0.004855   0.003562  -0.000388   0.000000   0.000000
    34  H    0.000007   0.000054   0.000147   0.000028  -0.000000  -0.000000
    35  O    0.000221   0.002357  -0.000051   0.000000  -0.000059   0.000000
    36  H   -0.000116   0.000130   0.000006  -0.000000  -0.000016  -0.000000
              25         26         27         28         29         30
     1  C   -0.000000   0.000000   0.001192   0.000002  -0.000000   0.000008
     2  C   -0.000000  -0.000054  -0.024053  -0.000016  -0.000000   0.000139
     3  C   -0.000000   0.000011  -0.056596  -0.000098  -0.000000  -0.008806
     4  C    0.000000   0.000000   0.008717  -0.000042   0.000000  -0.000025
     5  C   -0.000000  -0.000000  -0.000069  -0.000003   0.000000  -0.000018
     6  C    0.000000   0.000000  -0.000022   0.000000   0.000000  -0.000002
     7  H    0.000000  -0.000000  -0.000004  -0.000000   0.000000   0.000006
     8  H    0.000000   0.000003   0.008859  -0.000006  -0.000000   0.007945
     9  C    0.000001  -0.000934   0.268394   0.008854  -0.000004  -0.062601
    10  C   -0.000000   0.000000  -0.000934   0.000003  -0.000000   0.000046
    11  H    0.000000  -0.000000   0.000001   0.000000   0.000000   0.000000
    12  H   -0.000000   0.000000   0.000000  -0.000000  -0.000000   0.000000
    13  C    0.000000  -0.000000   0.007800   0.001498  -0.000000  -0.000213
    14  C    0.000000   0.000046  -0.062599   0.007944   0.000006   0.003785
    15  H    0.000000  -0.000000   0.000011  -0.000001  -0.000000  -0.000000
    16  H   -0.000000   0.000000  -0.000141   0.000012   0.000000   0.000001
    17  C   -0.045801   0.008369  -0.000671   0.004603  -0.042927   0.000043
    18  C    0.354146  -0.089780   0.014186   0.000507   0.004461  -0.000822
    19  C   -0.043656   0.428952  -0.014389   0.005721   0.001018  -0.058332
    20  C    0.004292  -0.018875   0.410347  -0.030316   0.002835   0.015841
    21  C    0.000496   0.016109  -0.089346   0.344403  -0.037722   0.013005
    22  C    0.004706  -0.000636   0.008141  -0.046942   0.356835  -0.000302
    23  H    0.006788   0.349176   0.000744   0.000002  -0.000000   0.002990
    24  H   -0.005448  -0.000199   0.000014  -0.000187  -0.004831  -0.000000
    25  H    0.609232  -0.008869  -0.000163   0.000019  -0.000199   0.000008
    26  C   -0.008869   5.141942  -0.065889  -0.000191   0.000009   0.013289
    27  C   -0.000163  -0.065889   5.284376  -0.015892  -0.000186   0.431089
    28  H    0.000019  -0.000191  -0.015892   0.593237  -0.005710  -0.000047
    29  H   -0.000199   0.000009  -0.000186  -0.005710   0.602674   0.000003
    30  C    0.000008   0.013289   0.431089  -0.000047   0.000003   4.736116
    31  C    0.000326   0.445511  -0.037800   0.000016  -0.000001   0.411042
    32  H   -0.000012  -0.027511   0.003911   0.000000  -0.000000  -0.041399
    33  O    0.000000   0.000011   0.002220  -0.003070  -0.000009  -0.000354
    34  H   -0.000000  -0.000000  -0.000358   0.000204   0.000000   0.000018
    35  O   -0.000000   0.004974  -0.060006  -0.000001  -0.000000   0.277828
    36  H   -0.000000   0.000918   0.007060   0.000000   0.000000  -0.032218
              31         32         33         34         35         36
     1  C   -0.000033   0.000000   0.000000  -0.000000  -0.000387   0.000028
     2  C   -0.000895   0.000018  -0.000051   0.000006   0.003578   0.000147
     3  C    0.000821  -0.000009   0.002358   0.000130  -0.004861   0.000054
     4  C    0.000010  -0.000000   0.000221  -0.000116  -0.000447   0.000007
     5  C   -0.000000   0.000000  -0.000000  -0.000001   0.000001  -0.000000
     6  C    0.000000  -0.000000  -0.000000   0.000000   0.000007  -0.000001
     7  H   -0.000000   0.000000  -0.000000   0.000000  -0.000009   0.000000
     8  H    0.001499   0.000012  -0.000001   0.000000  -0.003073   0.000203
     9  C    0.007799  -0.000141  -0.060013   0.007060   0.002227  -0.000357
    10  C   -0.000000   0.000000   0.004975   0.000919   0.000011  -0.000000
    11  H    0.000000  -0.000000  -0.000000  -0.000000   0.000000  -0.000000
    12  H    0.000000  -0.000000   0.000000  -0.000000   0.000000  -0.000000
    13  C    0.000003  -0.000000  -0.063765  -0.006149  -0.000017  -0.000000
    14  C   -0.000213   0.000001   0.277832  -0.032226  -0.000353   0.000018
    15  H    0.000000  -0.000000  -0.000059  -0.000016   0.000000  -0.000000
    16  H   -0.000000   0.000000  -0.005438   0.008201   0.000000   0.000000
    17  C   -0.000422   0.000004   0.000007  -0.000001  -0.000000   0.000000
    18  C    0.009360  -0.000206   0.000001  -0.000000  -0.000000  -0.000001
    19  C    0.004224   0.002194  -0.000446   0.000007   0.000221  -0.000116
    20  C   -0.055432   0.001073  -0.004855   0.000054   0.002357   0.000130
    21  C   -0.001230   0.000015   0.003562   0.000147  -0.000051   0.000006
    22  C    0.000069  -0.000000  -0.000388   0.000028   0.000000  -0.000000
    23  H   -0.039878  -0.005331   0.000000  -0.000000  -0.000059  -0.000016
    24  H    0.000004  -0.000000   0.000000  -0.000000   0.000000  -0.000000
    25  H    0.000326  -0.000012   0.000000  -0.000000  -0.000000  -0.000000
    26  C    0.445511  -0.027511   0.000011  -0.000000   0.004974   0.000918
    27  C   -0.037800   0.003911   0.002220  -0.000358  -0.060006   0.007060
    28  H    0.000016   0.000000  -0.003070   0.000204  -0.000001   0.000000
    29  H   -0.000001  -0.000000  -0.000009   0.000000  -0.000000   0.000000
    30  C    0.411042  -0.041399  -0.000354   0.000018   0.277828  -0.032218
    31  C    5.182736   0.339861  -0.000017  -0.000000  -0.063763  -0.006148
    32  H    0.339861   0.605888   0.000000   0.000000  -0.005436   0.008201
    33  O   -0.000017   0.000000   8.241448   0.243263  -0.000002  -0.000000
    34  H   -0.000000   0.000000   0.243263   0.372422  -0.000000   0.000000
    35  O   -0.063763  -0.005436  -0.000002  -0.000000   8.241432   0.243257
    36  H   -0.006148   0.008201  -0.000000   0.000000   0.243257   0.372420
 Mulliken charges:
               1
     1  C   -0.139313
     2  C   -0.176438
     3  C    0.116966
     4  C    0.132750
     5  C   -0.194119
     6  C   -0.137305
     7  H    0.123744
     8  H    0.135476
     9  C   -0.027940
    10  C   -0.196381
    11  H    0.124137
    12  H    0.124408
    13  C   -0.197455
    14  C    0.291947
    15  H    0.131666
    16  H    0.118873
    17  C   -0.137294
    18  C   -0.194129
    19  C    0.132770
    20  C    0.116934
    21  C   -0.176406
    22  C   -0.139329
    23  H    0.131665
    24  H    0.124406
    25  H    0.124134
    26  C   -0.196381
    27  C   -0.027945
    28  H    0.135495
    29  H    0.123748
    30  C    0.291937
    31  C   -0.197448
    32  H    0.118868
    33  O   -0.637430
    34  H    0.406408
    35  O   -0.637428
    36  H    0.406409
 Sum of Mulliken charges =  -0.00000
 Mulliken charges with hydrogens summed into heavy atoms:
               1
     1  C   -0.015569
     2  C   -0.040962
     3  C    0.116966
     4  C    0.132750
     5  C   -0.069982
     6  C   -0.012897
     9  C   -0.027940
    10  C   -0.064715
    13  C   -0.078583
    14  C    0.291947
    17  C   -0.012888
    18  C   -0.069994
    19  C    0.132770
    20  C    0.116934
    21  C   -0.040910
    22  C   -0.015581
    26  C   -0.064716
    27  C   -0.027945
    30  C    0.291937
    31  C   -0.078580
    33  O   -0.231022
    35  O   -0.231019
 Electronic spatial extent (au):  <R**2>=           5979.3180
 Charge=             -0.0000 electrons
 Dipole moment (field-independent basis, Debye):
    X=              0.0007    Y=             -0.0004    Z=              0.7147  Tot=              0.7147
 Quadrupole moment (field-independent basis, Debye-Ang):
   XX=           -116.5896   YY=           -100.8080   ZZ=           -124.5821
   XY=              6.1925   XZ=              0.0016   YZ=              0.0043
 Traceless Quadrupole moment (field-independent basis, Debye-Ang):
   XX=             -2.5964   YY=             13.1853   ZZ=            -10.5888
   XY=              6.1925   XZ=              0.0016   YZ=              0.0043
 Octapole moment (field-independent basis, Debye-Ang**2):
  XXX=              0.0037  YYY=             -0.0153  ZZZ=             26.1570  XYY=              0.0089
  XXY=              0.0017  XXZ=            -20.2665  XZZ=              0.0007  YZZ=              0.0187
  YYZ=             40.6534  XYZ=             22.4768
 Hexadecapole moment (field-independent basis, Debye-Ang**3):
 XXXX=          -4910.2184 YYYY=          -1643.5008 ZZZZ=           -959.5425 XXXY=             74.9514
 XXXZ=              0.0218 YYYX=             21.2251 YYYZ=              0.0073 ZZZX=             -0.0003
 ZZZY=              0.0642 XXYY=          -1140.4422 XXZZ=          -1050.3528 YYZZ=           -372.5647
 XXYZ=              0.0025 YYXZ=              0.0183 ZZXY=            -31.5702
 N-N= 1.674760031272D+03 E-N=-5.489671758501D+03  KE= 9.123094162554D+02
 Unable to Open any file for archive entry.
 1\1\GINC-CCC067\SP\RB3LYP TD-FC\6-31G(d)\C20H14O2\ROOT\20-Feb-2025\0\\
 # td=(nstat=16) b3lyp/6-31g(d)\\binol | No.15\\0,1\C,0,-2.918402,-1.88
 2871,1.484769\C,0,-1.79591,-1.404322,0.84702\C,0,-1.809764,-0.165501,0
 .145757\C,0,-3.031359,0.589108,0.171489\C,0,-4.177345,0.060153,0.82362
 9\C,0,-4.131426,-1.155462,1.463904\H,0,-2.869433,-2.829672,2.016684\H,
 0,-0.874523,-1.97133,0.893986\C,0,-0.655435,0.359171,-0.536296\C,0,-3.
 06195,1.875341,-0.423625\H,0,-5.092889,0.647643,0.816409\H,0,-5.011935
 ,-1.549273,1.964099\C,0,-1.937354,2.400886,-1.005656\C,0,-0.735567,1.6
 51865,-1.046882\H,0,-3.986258,2.447325,-0.401972\H,0,-1.957804,3.39451
 ,-1.451006\C,0,4.1315,1.155377,1.463827\C,0,4.177353,-0.060303,0.82368
 3\C,0,3.031354,-0.589247,0.171552\C,0,1.809837,0.165448,0.145723\C,0,1
 .796035,1.404351,0.846847\C,0,2.918551,1.882903,1.484575\H,0,3.986085,
 -2.447539,-0.401855\H,0,5.012028,1.549149,1.964023\H,0,5.09287,-0.6478
 37,0.816572\C,0,3.061835,-1.875466,-0.423611\C,0,0.655453,-0.359135,-0
 .536325\H,0,0.874646,1.971379,0.893723\H,0,2.86966,2.829751,2.016408\C
 ,0,0.735469,-1.65175,-1.047089\C,0,1.937229,-2.400863,-1.005795\H,0,1.
 957662,-3.394419,-1.451295\O,0,0.366451,2.171076,-1.673335\H,0,0.15433
 3,3.061667,-1.991921\O,0,-0.366484,-2.170774,-1.673855\H,0,-0.154796,-
 3.061869,-1.9913\\Version=ES64L-G16RevC.02\State=1-A\HF=-921.0105409\R
 MSD=7.121e-09\PG=C01 [X(C20H14O2)]\\@
 The archive entry for this job was punched.


 TOM, TOM, THE BURGLAR'S SON
 STOLE A MACHINE AND AWAY HE RUN
 THE JOB WAS NEAT, BUT TOM GOT BEAT
 BY THE TIME HE GOT HOME IT WAS OBSOLETE.
 Job cpu time:       0 days  0 hours 42 minutes 47.7 seconds.
 Elapsed time:       0 days  0 hours  5 minutes 33.9 seconds.
 File lengths (MBytes):  RWF=   1295 Int=      0 D2E=      0 Chk=     78 Scr=      1
 Normal termination of Gaussian 16 at Thu Feb 20 09:32:40 2025.
