 Entering Gaussian System, Link 0=/apl/gaussian/16c02/g16/._.g16
 Initial command:
 /apl/gaussian/16c02/g16/l1.exe "/lwork/users/ux8/8279362.ccpbs1/gaussian/Gau-568766.inp" -scrdir="/lwork/users/ux8/8279362.ccpbs1/gaussian/"
 Default CPUs for threads: 96,97,98,99,100,101,102,103
 Default is to use a total of   8 processors:
                                8 via shared-memory
                                1 via Linda
 Entering Link 1 = /apl/gaussian/16c02/g16/l1.exe PID=    568796.
  
 Copyright (c) 1988-2021, Gaussian, Inc.  All Rights Reserved.
  
 This is part of the Gaussian(R) 16 program.  It is based on
 the Gaussian(R) 09 system (copyright 2009, Gaussian, Inc.),
 the Gaussian(R) 03 system (copyright 2003, Gaussian, Inc.),
 the Gaussian(R) 98 system (copyright 1998, Gaussian, Inc.),
 the Gaussian(R) 94 system (copyright 1995, Gaussian, Inc.),
 the Gaussian 92(TM) system (copyright 1992, Gaussian, Inc.),
 the Gaussian 90(TM) system (copyright 1990, Gaussian, Inc.),
 the Gaussian 88(TM) system (copyright 1988, Gaussian, Inc.),
 the Gaussian 86(TM) system (copyright 1986, Carnegie Mellon
 University), and the Gaussian 82(TM) system (copyright 1983,
 Carnegie Mellon University). Gaussian is a federally registered
 trademark of Gaussian, Inc.
  
 This software contains proprietary and confidential information,
 including trade secrets, belonging to Gaussian, Inc.
  
 This software is provided under written license and may be
 used, copied, transmitted, or stored only in accord with that
 written license.
  
 The following legend is applicable only to US Government
 contracts under FAR:
  
                    RESTRICTED RIGHTS LEGEND
  
 Use, reproduction and disclosure by the US Government is
 subject to restrictions as set forth in subparagraphs (a)
 and (c) of the Commercial Computer Software - Restricted
 Rights clause in FAR 52.227-19.
  
 Gaussian, Inc.
 340 Quinnipiac St., Bldg. 40, Wallingford CT 06492
  
  
 ---------------------------------------------------------------
 Warning -- This program may not be used in any manner that
 competes with the business of Gaussian, Inc. or will provide
 assistance to any competitor of Gaussian, Inc.  The licensee
 of this program is prohibited from giving any competitor of
 Gaussian, Inc. access to this program.  By using this program,
 the user acknowledges that Gaussian, Inc. is engaged in the
 business of creating and licensing software in the field of
 computational chemistry and represents and warrants to the
 licensee that it is not a competitor of Gaussian, Inc. and that
 it will not use this program in any manner prohibited above.
 ---------------------------------------------------------------
  

 Cite this work as:
 Gaussian 16, Revision C.02,
 M. J. Frisch, G. W. Trucks, H. B. Schlegel, G. E. Scuseria, 
 M. A. Robb, J. R. Cheeseman, G. Scalmani, V. Barone, 
 G. A. Petersson, H. Nakatsuji, X. Li, M. Caricato, A. V. Marenich, 
 J. Bloino, B. G. Janesko, R. Gomperts, B. Mennucci, H. P. Hratchian, 
 J. V. Ortiz, A. F. Izmaylov, J. L. Sonnenberg, D. Williams-Young, 
 F. Ding, F. Lipparini, F. Egidi, J. Goings, B. Peng, A. Petrone, 
 T. Henderson, D. Ranasinghe, V. G. Zakrzewski, J. Gao, N. Rega, 
 G. Zheng, W. Liang, M. Hada, M. Ehara, K. Toyota, R. Fukuda, 
 J. Hasegawa, M. Ishida, T. Nakajima, Y. Honda, O. Kitao, H. Nakai, 
 T. Vreven, K. Throssell, J. A. Montgomery, Jr., J. E. Peralta, 
 F. Ogliaro, M. J. Bearpark, J. J. Heyd, E. N. Brothers, K. N. Kudin, 
 V. N. Staroverov, T. A. Keith, R. Kobayashi, J. Normand, 
 K. Raghavachari, A. P. Rendell, J. C. Burant, S. S. Iyengar, 
 J. Tomasi, M. Cossi, J. M. Millam, M. Klene, C. Adamo, R. Cammi, 
 J. W. Ochterski, R. L. Martin, K. Morokuma, O. Farkas, 
 J. B. Foresman, and D. J. Fox, Gaussian, Inc., Wallingford CT, 2019.
 
 ******************************************
 Gaussian 16:  ES64L-G16RevC.02  7-Dec-2021
                20-Feb-2025 
 ******************************************
 %chk=binol.008.tddft.chk
 %mem=9600MB
 SetSPE:  set environment variable "OMP_PROC_BIND" = "true"
 SetSPE:  set environment variable "OMP_PLACES" = "{96},{97},{98},{99},{100},{101},{102},{103}"
 ------------------------------
 # td=(nstat=16) b3lyp/6-31g(d)
 ------------------------------
 1/38=1,172=1/1;
 2/12=2,17=6,18=5,40=1/2;
 3/5=1,6=6,7=1,11=9,25=1,30=1,74=-5/1,2,3,8;
 4//1;
 5/5=2,38=5/2;
 8/6=1,10=2,108=16/1;
 9/41=16,42=1,70=2/14;
 6/7=2,8=2,9=2,10=2/1;
 99/5=1,9=1/99;
 ------------
 binol | No.8
 ------------
 Symbolic Z-matrix:
 Charge =  0 Multiplicity = 1
 C                    -3.02826  -1.87344  -1.29518 
 C                    -1.87758  -1.39838  -0.70448 
 C                    -1.8328   -0.14697  -0.02476 
 C                    -3.02581   0.65191  -0.11422 
 C                    -4.21147   0.12105  -0.68972 
 C                    -4.22844  -1.13056  -1.25575 
 H                    -3.00395  -2.82902  -1.81308 
 H                    -0.97409  -1.9813   -0.80331 
 C                    -0.64981   0.37636   0.6504 
 C                    -2.98598   2.01211   0.27995 
 H                    -5.10042   0.74784  -0.70249 
 H                    -5.1356   -1.52594  -1.70422 
 C                    -1.81257   2.56212   0.71517 
 C                    -0.65446   1.75955   0.86103 
 H                    -3.88519   2.61742   0.19867 
 H                    -1.75782   3.61581   0.98445 
 C                     4.22839   1.13062  -1.25577 
 C                     4.21145  -0.121    -0.68976 
 C                     3.02582  -0.65189  -0.11424 
 C                     1.83279   0.14696  -0.02476 
 C                     1.87753   1.39839  -0.70445 
 C                     3.02819   1.87348  -1.29515 
 H                     3.88524  -2.61739   0.1986 
 H                     5.13553   1.52603  -1.70424 
 H                     5.10042  -0.74777  -0.70255 
 C                     2.98602  -2.0121    0.27991 
 C                     0.64982  -0.3764    0.65041 
 H                     0.97403   1.9813   -0.80324 
 H                     3.00386   2.82908  -1.81303 
 C                     0.65452  -1.75959   0.86106 
 C                     1.81263  -2.56213   0.71515 
 H                     1.7579   -3.61584   0.9844 
 O                     0.44524   2.32156   1.46182 
 H                     0.27477   3.26394   1.61108 
 O                    -0.44521  -2.32164   1.46179 
 H                    -0.27476  -3.26404   1.61096 
 
                          Input orientation:                          
 ---------------------------------------------------------------------
 Center     Atomic      Atomic             Coordinates (Angstroms)
 Number     Number       Type             X           Y           Z
 ---------------------------------------------------------------------
      1          6           0       -3.028260   -1.873438   -1.295175
      2          6           0       -1.877577   -1.398384   -0.704475
      3          6           0       -1.832797   -0.146974   -0.024760
      4          6           0       -3.025808    0.651910   -0.114219
      5          6           0       -4.211466    0.121045   -0.689715
      6          6           0       -4.228443   -1.130559   -1.255751
      7          1           0       -3.003952   -2.829024   -1.813078
      8          1           0       -0.974087   -1.981300   -0.803314
      9          6           0       -0.649811    0.376363    0.650400
     10          6           0       -2.985981    2.012105    0.279953
     11          1           0       -5.100419    0.747842   -0.702485
     12          1           0       -5.135600   -1.525939   -1.704222
     13          6           0       -1.812569    2.562118    0.715173
     14          6           0       -0.654464    1.759553    0.861026
     15          1           0       -3.885193    2.617419    0.198667
     16          1           0       -1.757818    3.615814    0.984453
     17          6           0        4.228389    1.130621   -1.255770
     18          6           0        4.211450   -0.120995   -0.689756
     19          6           0        3.025816   -0.651894   -0.114243
     20          6           0        1.832789    0.146961   -0.024761
     21          6           0        1.877529    1.398388   -0.704446
     22          6           0        3.028192    1.873480   -1.295154
     23          1           0        3.885244   -2.617394    0.198596
     24          1           0        5.135531    1.526030   -1.704243
     25          1           0        5.100417   -0.747772   -0.702550
     26          6           0        2.986022   -2.012097    0.279908
     27          6           0        0.649822   -0.376400    0.650409
     28          1           0        0.974025    1.981295   -0.803235
     29          1           0        3.003856    2.829081   -1.813028
     30          6           0        0.654515   -1.759586    0.861056
     31          6           0        1.812629   -2.562134    0.715148
     32          1           0        1.757896   -3.615839    0.984397
     33          8           0        0.445236    2.321559    1.461824
     34          1           0        0.274772    3.263942    1.611076
     35          8           0       -0.445207   -2.321636    1.461791
     36          1           0       -0.274762   -3.264035    1.610957
 ---------------------------------------------------------------------
                    Distance matrix (angstroms):
                    1          2          3          4          5
     1  C    0.000000
     2  C    1.377924   0.000000
     3  C    2.454336   1.424796   0.000000
     4  C    2.787839   2.422920   1.438574   0.000000
     5  C    2.396773   2.784945   2.484364   1.420844   0.000000
     6  C    1.412042   2.429446   2.867385   2.434465   1.373753
     7  H    1.087179   2.131772   3.429734   3.873435   3.379784
     8  H    2.114991   1.079747   2.169857   3.408549   3.861785
     9  C    3.808397   2.548102   1.459170   2.511161   3.813985
    10  C    4.192882   3.718749   2.466638   1.416717   2.453197
    11  H    3.393558   3.872080   3.455049   2.158534   1.087784
    12  H    2.174616   3.410349   3.953561   3.423793   2.143783
    13  C    5.019319   4.207755   2.808396   2.410132   3.699629
    14  C    4.845899   3.730867   2.409965   2.793071   4.212098
    15  H    4.809750   4.579614   3.450234   2.167871   2.669749
    16  H    6.078044   5.292353   3.896499   3.405819   4.586571
    17  C    7.853972   6.631939   6.315506   7.359054   8.518851
    18  C    7.473352   6.221591   6.080774   7.301132   8.426393
    19  C    6.287973   4.994886   4.885598   6.190481   7.301154
    20  C    5.415327   4.076385   3.677352   4.885585   6.080777
    21  C    5.926261   4.682174   4.076351   4.994828   6.221550
    22  C    7.121798   5.926261   5.415288   6.287906   7.473301
    23  H    7.112057   5.959163   6.232885   7.651721   8.593303
    24  H    8.852751   7.663904   7.360516   8.360605   9.506293
    25  H    8.227619   7.008259   6.992125   8.266848   9.352335
    26  C    6.218657   5.000025   5.176149   6.587440   7.569300
    27  C    4.422070   3.044324   2.583000   3.892600   5.067100
    28  H    5.578464   4.423078   3.607465   4.270910   5.510239
    29  H    7.666047   6.552003   5.953824   6.631958   7.788207
    30  C    4.269090   2.998807   3.093850   4.506801   5.442374
    31  C    5.286767   4.121561   4.435041   5.867572   6.742612
    32  H    5.580296   4.581054   5.093574   6.504188   7.238801
    33  O    6.104442   4.891450   3.673285   4.161705   5.581779
    34  H    6.763800   5.633087   4.330376   4.548976   5.941193
    35  O    3.804459   2.756227   2.977313   4.240906   4.977989
    36  H    4.238056   3.378002   3.849560   5.087152   5.678864
                    6          7          8          9         10
     6  C    0.000000
     7  H    2.166743   0.000000
     8  H    3.394008   2.420457   0.000000
     9  C    4.325602   4.678163   2.788730   0.000000
    10  C    3.711932   5.274242   4.600920   2.875860   0.000000
    11  H    2.143557   4.292151   4.948232   4.666498   2.652243
    12  H    1.086455   2.500761   4.282193   5.411589   4.590813
    13  C    4.832893   6.072550   4.863281   2.476636   1.367050
    14  C    5.060318   5.807406   4.106844   1.399142   2.416071
    15  H    4.034909   5.872601   5.534141   3.961577   1.087012
    16  H    5.800910   7.135472   5.927734   3.439958   2.139296
    17  C    8.753910   8.264148   6.079023   5.291429   7.428499
    18  C    8.518883   7.788280   5.510302   5.067074   7.569245
    19  C    7.359106   6.632046   4.270991   3.892586   6.587411
    20  C    6.315531   5.953875   3.607519   2.582977   5.176114
    21  C    6.631923   6.552018   4.423096   3.044272   4.999942
    22  C    7.853952   7.666065   5.578483   4.422018   6.218557
    23  H    8.376021   7.180017   5.002153   5.452837   8.285687
    24  H    9.743850   9.231984   7.102145   6.351083   8.374501
    25  H    9.353084   8.440716   6.199302   6.013258   8.600701
    26  C    7.428584   6.397480   4.105701   4.365923   7.201321
    27  C    5.291472   5.043233   2.706676   1.501898   4.365920
    28  H    6.078987   6.323231   4.415575   2.706604   4.105593
    29  H    8.264106   8.252752   6.323236   5.043172   6.397356
    30  C    5.359088   4.656079   2.339151   2.511557   5.274139
    31  C    6.513709   5.446339   3.226280   3.834393   6.643773
    32  H    6.857925   5.578543   3.651213   4.674001   7.394212
    33  O    6.414484   7.010734   5.065563   2.375147   3.642229
    34  H    6.914426   7.720045   5.907748   3.180545   3.737846
    35  O    4.807970   4.186811   2.350796   2.824786   5.160774
    36  H    5.329290   4.400196   2.821909   3.783626   6.079468
                   11         12         13         14         15
    11  H    0.000000
    12  H    2.484913   0.000000
    13  C    4.013890   5.797259   0.000000
    14  C    4.820233   6.120093   1.416542   0.000000
    15  H    2.405030   4.727782   2.136728   3.407677   0.000000
    16  H    4.716355   6.713867   1.088937   2.162945   2.477898
    17  C    9.353037   9.743855   6.513599   5.358977   8.375928
    18  C    9.352323   9.506332   6.742531   5.442289   8.593244
    19  C    8.266861   8.360664   5.867519   4.506738   7.651690
    20  C    6.992120   7.360545   4.434988   3.093784   6.232849
    21  C    7.008207   7.663891   4.121457   2.998688   5.959078
    22  C    8.227553   8.852733   5.286644   4.268963   7.111950
    23  H    9.637370   9.283729   7.717465   6.340775   9.369256
    24  H   10.314251  10.714973   7.429882   6.337127   9.283623
    25  H   10.309894  10.314307   7.794529   6.469166   9.637318
    26  C    8.600749   8.374596   6.643747   5.274105   8.285687
    27  C    6.013278   6.351129   3.834378   2.511537   5.452833
    28  H    6.199228   7.102111   3.226147   2.338998   5.002046
    29  H    8.440624   9.231944   5.446193   4.655938   7.179883
    30  C    6.469244   6.337245   4.978445   3.754699   6.340811
    31  C    7.794604   7.430003   6.276943   4.978434   7.717493
    32  H    8.302034   7.688735   7.140578   5.893177   8.444840
    33  O    6.157525   7.481498   2.390197   1.373371   4.520588
    34  H    6.369930   7.950238   2.377434   1.920740   4.440518
    35  O    5.981370   5.714592   5.126224   4.130473   6.150061
    36  H    6.688358   6.135074   6.091908   5.093428   7.044237
                   16         17         18         19         20
    16  H    0.000000
    17  C    6.857803   0.000000
    18  C    7.238707   1.373754   0.000000
    19  C    6.504123   2.434466   1.420844   0.000000
    20  C    5.093517   2.867380   2.484360   1.438572   0.000000
    21  C    4.580950   2.429444   2.784947   2.422924   1.424796
    22  C    5.580164   1.412042   2.396776   2.787843   2.454334
    23  H    8.444797   4.034916   2.669754   2.167873   3.450235
    24  H    7.688598   1.086454   2.143782   3.423792   3.953555
    25  H    8.301942   2.143559   1.087785   2.158534   3.455045
    26  C    7.394172   3.711935   2.453200   1.416718   2.466638
    27  C    4.673980   4.325595   3.813983   2.511163   1.459168
    28  H    3.651088   3.394012   3.861790   3.408554   2.169857
    29  H    5.578386   2.166745   3.379789   3.873440   3.429732
    30  C    5.893174   5.060319   4.212100   2.793073   2.409963
    31  C    7.140564   4.832893   3.699629   2.410130   2.808392
    32  H    8.040961   5.800911   4.586573   3.405819   3.896495
    33  O    2.599313   4.807899   4.977925   4.240849   2.977266
    34  H    2.155897   5.329254   5.678826   5.087115   3.849539
    35  O    6.099517   6.414493   5.581794   4.161721   3.673292
    36  H    7.065712   6.914441   5.941219   4.549001   4.330385
                   21         22         23         24         25
    21  C    0.000000
    22  C    1.377924   0.000000
    23  H    4.579619   4.809758   0.000000
    24  H    3.410347   2.174616   4.727788   0.000000
    25  H    3.872081   3.393561   2.405036   2.484914   0.000000
    26  C    3.718752   4.192888   1.087013   4.590815   2.652246
    27  C    2.548091   3.808388   3.961584   5.411581   4.666499
    28  H    1.079750   2.114997   5.534149   4.282197   4.948238
    29  H    2.131771   1.087179   5.872612   2.500763   4.292156
    30  C    3.730866   4.845901   3.407682   6.120093   4.820236
    31  C    4.207754   5.019321   2.136729   5.797259   4.013892
    32  H    5.292351   6.078045   2.477899   6.713868   4.716359
    33  O    2.756163   3.804387   6.150013   5.714518   5.981306
    34  H    3.377982   4.238028   7.044198   6.135035   6.688315
    35  O    4.891448   6.104445   4.520613   7.481507   6.157545
    36  H    5.633084   6.763804   4.440558   7.950254   6.369964
                   26         27         28         29         30
    26  C    0.000000
    27  C    2.875866   0.000000
    28  H    4.600925   2.788712   0.000000
    29  H    5.274249   4.678152   2.420462   0.000000
    30  C    2.416075   1.399142   4.106841   5.807408   0.000000
    31  C    1.367050   2.476640   4.863280   6.072553   1.416545
    32  H    2.139296   3.439962   5.927731   7.135475   2.162947
    33  O    5.160726   2.824754   2.350721   4.186737   4.130432
    34  H    6.079430   3.783601   2.821885   4.400170   5.093385
    35  O    3.642251   2.375157   5.065548   7.010732   1.373379
    36  H    3.737881   3.180557   5.907730   7.720044   1.920748
                   31         32         33         34         35
    31  C    0.000000
    32  H    1.088938   0.000000
    33  O    5.126182   6.099484   0.000000
    34  H    6.091868   7.065675   0.969237   0.000000
    35  O    2.390217   2.599332   4.727806   5.633768   0.000000
    36  H    2.377465   2.155932   5.633782   6.551066   0.969236
                   36
    36  H    0.000000
 Stoichiometry    C20H14O2
 Framework group  C1[X(C20H14O2)]
 Deg. of freedom   102
 Full point group                 C1      NOp   1
 Largest Abelian subgroup         C1      NOp   1
 Largest concise Abelian subgroup C1      NOp   1
                         Standard orientation:                         
 ---------------------------------------------------------------------
 Center     Atomic      Atomic             Coordinates (Angstroms)
 Number     Number       Type             X           Y           Z
 ---------------------------------------------------------------------
      1          6           0       -3.028260    1.873438    1.295175
      2          6           0       -1.877577    1.398384    0.704475
      3          6           0       -1.832797    0.146974    0.024760
      4          6           0       -3.025808   -0.651910    0.114219
      5          6           0       -4.211466   -0.121045    0.689715
      6          6           0       -4.228443    1.130559    1.255751
      7          1           0       -3.003952    2.829024    1.813078
      8          1           0       -0.974087    1.981300    0.803314
      9          6           0       -0.649811   -0.376363   -0.650400
     10          6           0       -2.985981   -2.012105   -0.279953
     11          1           0       -5.100419   -0.747842    0.702485
     12          1           0       -5.135600    1.525939    1.704222
     13          6           0       -1.812569   -2.562118   -0.715173
     14          6           0       -0.654464   -1.759553   -0.861026
     15          1           0       -3.885193   -2.617419   -0.198667
     16          1           0       -1.757818   -3.615814   -0.984453
     17          6           0        4.228389   -1.130621    1.255770
     18          6           0        4.211450    0.120995    0.689756
     19          6           0        3.025816    0.651894    0.114243
     20          6           0        1.832789   -0.146961    0.024761
     21          6           0        1.877529   -1.398388    0.704446
     22          6           0        3.028192   -1.873480    1.295154
     23          1           0        3.885244    2.617394   -0.198596
     24          1           0        5.135531   -1.526030    1.704243
     25          1           0        5.100417    0.747772    0.702550
     26          6           0        2.986022    2.012097   -0.279908
     27          6           0        0.649822    0.376400   -0.650409
     28          1           0        0.974025   -1.981295    0.803235
     29          1           0        3.003856   -2.829081    1.813028
     30          6           0        0.654515    1.759586   -0.861056
     31          6           0        1.812629    2.562134   -0.715148
     32          1           0        1.757896    3.615839   -0.984397
     33          8           0        0.445236   -2.321559   -1.461824
     34          1           0        0.274772   -3.263942   -1.611076
     35          8           0       -0.445207    2.321636   -1.461791
     36          1           0       -0.274762    3.264035   -1.610957
 ---------------------------------------------------------------------
 Rotational constants (GHZ):           0.5036450           0.2322385           0.1864057
 Standard basis: 6-31G(d) (6D, 7F)
 There are   358 symmetry adapted cartesian basis functions of A   symmetry.
 There are   358 symmetry adapted basis functions of A   symmetry.
   358 basis functions,   672 primitive gaussians,   358 cartesian basis functions
    75 alpha electrons       75 beta electrons
       nuclear repulsion energy      1677.0585542521 Hartrees.
 NAtoms=   36 NActive=   36 NUniq=   36 SFac= 1.00D+00 NAtFMM=   60 NAOKFM=F Big=F
 Integral buffers will be    131072 words long.
 Regular integral format.
 Two-electron integral symmetry is turned on.
 One-electron integrals computed using PRISM.
 NBasis=   358 RedAO= T EigKep=  2.89D-04  NBF=   358
 NBsUse=   358 1.00D-06 EigRej= -1.00D+00 NBFU=   358
 ExpMin= 1.61D-01 ExpMax= 5.48D+03 ExpMxC= 8.25D+02 IAcc=3 IRadAn=         5 AccDes= 0.00D+00
 Harris functional with IExCor=  402 and IRadAn=       5 diagonalized for initial guess.
 HarFok:  IExCor=  402 AccDes= 0.00D+00 IRadAn=         5 IDoV= 1 UseB2=F ITyADJ=14
 ICtDFT=  3500011 ScaDFX=  1.000000  1.000000  1.000000  1.000000
 FoFCou: FMM=F IPFlag=           0 FMFlag=      100000 FMFlg1=           0
         NFxFlg=           0 DoJE=T BraDBF=F KetDBF=T FulRan=T
         wScrn=  0.000000 ICntrl=       500 IOpCl=  0 I1Cent=   200000004 NGrid=           0
         NMat0=    1 NMatS0=      1 NMatT0=    0 NMatD0=    1 NMtDS0=    0 NMtDT0=    0
 Petite list used in FoFCou.
 Requested convergence on RMS density matrix=1.00D-08 within 128 cycles.
 Requested convergence on MAX density matrix=1.00D-06.
 Requested convergence on             energy=1.00D-06.
 No special actions if energy rises.
 Integral accuracy reduced to 1.0D-05 until final iterations.
 Initial convergence to 1.0D-05 achieved.  Increase integral accuracy.
 SCF Done:  E(RB3LYP) =  -920.986728738     A.U. after   14 cycles
            NFock= 14  Conv=0.67D-08     -V/T= 2.0095
 DoSCS=F DFT=T ScalE2(SS,OS)=  1.000000  1.000000
 ExpMin= 1.61D-01 ExpMax= 5.48D+03 ExpMxC= 8.25D+02 IAcc=3 IRadAn=         5 AccDes= 0.00D+00
 HarFok:  IExCor=  205 AccDes= 0.00D+00 IRadAn=         5 IDoV=-2 UseB2=F ITyADJ=14
 ICtDFT= 12500011 ScaDFX=  1.000000  1.000000  1.000000  1.000000
 GSVD:  LWork=        -660 too small for GESVD, short by        2750 words or        2750 for optimal perf.
 Range of M.O.s used for correlation:    23   358
 NBasis=   358 NAE=    75 NBE=    75 NFC=    22 NFV=     0
 NROrb=    336 NOA=    53 NOB=    53 NVA=   283 NVB=   283
 Orbital symmetries:
       Occupied  (A) (A) (A) (A) (A) (A) (A) (A) (A) (A) (A) (A)
                 (A) (A) (A) (A) (A) (A) (A) (A) (A) (A) (A) (A)
                 (A) (A) (A) (A) (A) (A) (A) (A) (A) (A) (A) (A)
                 (A) (A) (A) (A) (A) (A) (A) (A) (A) (A) (A) (A)
                 (A) (A) (A) (A) (A) (A) (A) (A) (A) (A) (A) (A)
                 (A) (A) (A) (A) (A) (A) (A) (A) (A) (A) (A) (A)
                 (A) (A) (A)
       Virtual   (A) (A) (A) (A) (A) (A) (A) (A) (A) (A) (A) (A)
                 (A) (A) (A) (A) (A) (A) (A) (A) (A) (A) (A) (A)
                 (A) (A) (A) (A) (A) (A) (A) (A) (A) (A) (A) (A)
                 (A) (A) (A) (A) (A) (A) (A) (A) (A) (A) (A) (A)
                 (A) (A) (A) (A) (A) (A) (A) (A) (A) (A) (A) (A)
                 (A) (A) (A) (A) (A) (A) (A) (A) (A) (A) (A) (A)
                 (A) (A) (A) (A) (A) (A) (A) (A) (A) (A) (A) (A)
                 (A) (A) (A) (A) (A) (A) (A) (A) (A) (A) (A) (A)
                 (A) (A) (A) (A) (A) (A) (A) (A) (A) (A) (A) (A)
                 (A) (A) (A) (A) (A) (A) (A) (A) (A) (A) (A) (A)
                 (A) (A) (A) (A) (A) (A) (A) (A) (A) (A) (A) (A)
                 (A) (A) (A) (A) (A) (A) (A) (A) (A) (A) (A) (A)
                 (A) (A) (A) (A) (A) (A) (A) (A) (A) (A) (A) (A)
                 (A) (A) (A) (A) (A) (A) (A) (A) (A) (A) (A) (A)
                 (A) (A) (A) (A) (A) (A) (A) (A) (A) (A) (A) (A)
                 (A) (A) (A) (A) (A) (A) (A) (A) (A) (A) (A) (A)
                 (A) (A) (A) (A) (A) (A) (A) (A) (A) (A) (A) (A)
                 (A) (A) (A) (A) (A) (A) (A) (A) (A) (A) (A) (A)
                 (A) (A) (A) (A) (A) (A) (A) (A) (A) (A) (A) (A)
                 (A) (A) (A) (A) (A) (A) (A) (A) (A) (A) (A) (A)
                 (A) (A) (A) (A) (A) (A) (A) (A) (A) (A) (A) (A)
                 (A) (A) (A) (A) (A) (A) (A) (A) (A) (A) (A) (A)
                 (A) (A) (A) (A) (A) (A) (A) (A) (A) (A) (A) (A)
                 (A) (A) (A) (A) (A) (A) (A)
    64 initial guesses have been made.
 Convergence on wavefunction:    0.001000000000000
 Iteration     1 Dimension    64 NMult     0 NNew     64
 CISAX will form    64 AO SS matrices at one time.
 New state      3 was old state      5
 New state      5 was old state      3
 New state      7 was old state      8
 New state      8 was old state     13
 New state      9 was old state     12
 New state     12 was old state     14
 New state     13 was old state     19
 New state     14 was old state     17
 New state     16 was old state     21
 Iteration     2 Dimension    96 NMult    64 NNew     32
 New state      9 was old state     10
 New state     10 was old state      9
 New state     16 was old state     17
 Iteration     3 Dimension   128 NMult    96 NNew     32
 Iteration     4 Dimension   160 NMult   128 NNew     32
 Iteration     5 Dimension   174 NMult   160 NNew     14
 Iteration     6 Dimension   176 NMult   174 NNew      2
 ***********************************************************************
 Excited states from <AA,BB:AA,BB> singles matrix:
 ***********************************************************************
 
 Ground to excited state transition densities written to RWF  633
 Ground to excited state transition electric dipole moments (Au):
       state          X           Y           Z        Dip. S.      Osc.
         1        -1.4621     -0.6779      0.0000      2.5972      0.2188
         2        -0.0000     -0.0000     -0.1296      0.0168      0.0015
         3         0.0000      0.0000     -0.1075      0.0116      0.0012
         4        -0.3635      0.2894     -0.0000      0.2159      0.0219
         5        -0.0000      0.0000     -0.1116      0.0125      0.0013
         6        -0.6068     -0.0498      0.0000      0.3707      0.0406
         7        -0.0001      0.0001      0.4170      0.1739      0.0200
         8         0.3910     -0.8043      0.0000      0.7997      0.0938
         9         0.3616     -0.0392     -0.0000      0.1323      0.0159
        10         0.0003     -0.0001      0.0766      0.0059      0.0007
        11        -0.1017      0.0668      0.0000      0.0148      0.0018
        12        -1.0630      0.0396      0.0000      1.1315      0.1473
        13        -0.0001      0.0001      0.8851      0.7834      0.1060
        14         0.0003     -0.0005     -0.4642      0.2155      0.0296
        15         0.1624     -0.7153      0.0005      0.5380      0.0742
        16         0.0003     -0.0004     -0.0189      0.0004      0.0000
 Ground to excited state transition velocity dipole moments (Au):
       state          X           Y           Z        Dip. S.      Osc.
         1         0.1954      0.0871     -0.0000      0.0458      0.2415
         2         0.0000      0.0000      0.0194      0.0004      0.0018
         3        -0.0000     -0.0000      0.0099      0.0001      0.0004
         4         0.0509     -0.0422      0.0000      0.0044      0.0192
         5         0.0000     -0.0000      0.0160      0.0003      0.0011
         6         0.1077      0.0119     -0.0000      0.0117      0.0476
         7         0.0000     -0.0000     -0.0752      0.0057      0.0218
         8        -0.0587      0.1395     -0.0000      0.0229      0.0868
         9        -0.0705      0.0119      0.0000      0.0051      0.0190
        10        -0.0001      0.0000     -0.0141      0.0002      0.0007
        11         0.0188     -0.0236     -0.0000      0.0009      0.0033
        12         0.2006     -0.0070     -0.0000      0.0403      0.1374
        13         0.0000     -0.0000     -0.1796      0.0323      0.1060
        14        -0.0001      0.0001      0.0980      0.0096      0.0311
        15        -0.0300      0.1440     -0.0001      0.0216      0.0697
        16        -0.0001      0.0001      0.0046      0.0000      0.0001
 Ground to excited state transition magnetic dipole moments (Au):
       state          X           Y           Z
         1         0.2223     -0.1668     -0.0000
         2         0.0000      0.0000     -0.8935
         3         0.0000      0.0000     -0.5873
         4         0.1610     -0.3006     -0.0000
         5         0.0000     -0.0000     -0.1790
         6        -0.1556     -0.0050      0.0001
         7         0.0000     -0.0001      1.2195
         8        -0.1937      0.4426      0.0001
         9        -0.1772      0.1335     -0.0001
        10        -0.0001      0.0002      0.2522
        11         0.0257     -0.2102      0.0001
        12         0.3851     -0.8478     -0.0000
        13         0.0000     -0.0000      1.9747
        14        -0.0001      0.0003     -1.0152
        15        -0.1376      0.3479      0.0011
        16        -0.0001      0.0002     -0.0652
 Ground to excited state transition velocity quadrupole moments (Au):
       state          XX          YY          ZZ          XY          XZ          YZ
         1        -0.0000      0.0000      0.0000      0.0000      0.1758     -0.2119
         2        -0.1503     -0.1593      0.0161     -0.2227      0.0000     -0.0000
         3        -0.4824     -0.1612      0.0205     -0.4171      0.0000      0.0000
         4        -0.0000     -0.0000     -0.0000     -0.0000      0.1384     -0.0109
         5         0.8061     -0.0458     -0.0094      0.1713      0.0000      0.0000
         6        -0.0000      0.0000      0.0000     -0.0000      0.1328      0.0257
         7        -0.4869      0.2397     -0.0049      0.4045      0.0000      0.0000
         8        -0.0000      0.0000     -0.0000      0.0001     -0.2403     -0.0429
         9         0.0000     -0.0001     -0.0000     -0.0000     -0.1260      0.0825
        10        -0.0873      0.1163      0.0064      0.1138     -0.0001      0.0000
        11        -0.0001      0.0000      0.0000      0.0001      0.0003     -0.0903
        12         0.0000      0.0000     -0.0000      0.0000      0.3136     -0.3775
        13        -1.8951      0.5793     -0.0591      1.0505      0.0001      0.0000
        14         1.2320     -0.1844      0.0420     -0.4015     -0.0003     -0.0000
        15        -0.0014      0.0002     -0.0000      0.0005     -0.3188      0.0039
        16         0.3008      0.1728     -0.0010      0.2357     -0.0002     -0.0000
 <0|del|b> * <b|rxdel|0> + <0|del|b> * <b|delr+rdel|0>
 Rotatory Strengths (R) in cgs (10**-40 erg-esu-cm/Gauss)
       state          XX          YY          ZZ    R(velocity)    E-M Angle
         1       -83.5181      5.7025    239.6827     53.9557       60.90
         2       -55.8092    -33.5388      0.0000    -29.7827       90.00
         3       -23.4568     -3.9742     -0.0000     -9.1437       90.00
         4        43.1546     17.8004     36.3307     32.4286       22.16
         5        -0.2739    -12.5591      0.0000     -4.2777       90.00
         6        -3.5246    -30.0816    -38.7411    -24.1157      175.55
         7      -249.7491   -125.3461      0.0000   -125.0317       90.00
         8       191.5446     27.9131     74.5372     97.9983        0.82
         9         6.0660     13.1379     36.2074     18.4704       27.42
        10       -10.1037     -3.8208      0.0000     -4.6415       90.00
        11         9.5080     -2.3284     13.6650      6.9482       31.61
        12        14.6897      2.7283    283.6097    100.3425       63.58
        13      -946.5412   -289.1717     -0.0000   -411.9043       90.00
        14      -238.0555   -103.1176      0.0000   -113.7244      179.92
        15       164.0364      6.8605     14.4178     61.7716        9.80
        16         1.3164     -2.3237      0.0000     -0.3358       90.00
 1/2[<0|r|b>*<b|rxdel|0> + (<0|rxdel|b>*<b|r|0>)*]
 Rotatory Strengths (R) in cgs (10**-40 erg-esu-cm/Gauss)
       state          XX          YY          ZZ     R(length)
         1       229.8946    -79.9782      0.0000     49.9721
         2         0.0000      0.0000    -81.8723    -27.2908
         3        -0.0000     -0.0000    -44.6397    -14.8799
         4        41.3911     61.5290     -0.0000     34.3067
         5         0.0000      0.0000    -14.1260     -4.7087
         6       -66.7577     -0.1766     -0.0000    -22.3114
         7         0.0000      0.0000   -359.6146   -119.8715
         8        53.5556    251.7547     -0.0000    101.7701
         9        45.3269      3.7024     -0.0000     16.3431
        10         0.0000      0.0000    -13.6682     -4.5560
        11         1.8490      9.9299     -0.0000      3.9263
        12       289.4497     23.7251      0.0000    104.3916
        13         0.0000      0.0000  -1236.0289   -412.0096
        14         0.0000      0.0001   -333.2779   -111.0926
        15        15.8049    175.9842     -0.0004     63.9296
        16         0.0000      0.0001     -0.8729     -0.2909
  1/2[<0|del|b>*<b|r|0> + (<0|r|b>*<b|del|0>)*] (Au)
       state          X           Y           Z        Dip. S.   Osc.(frdel)
         1        -0.2857     -0.0590     -0.0000      0.3448      0.2298
         2        -0.0000     -0.0000     -0.0025      0.0025      0.0017
         3        -0.0000     -0.0000     -0.0011      0.0011      0.0007
         4        -0.0185     -0.0122     -0.0000      0.0307      0.0205
         5        -0.0000     -0.0000     -0.0018      0.0018      0.0012
         6        -0.0654     -0.0006     -0.0000      0.0660      0.0440
         7        -0.0000     -0.0000     -0.0313      0.0313      0.0209
         8        -0.0229     -0.1122     -0.0000      0.1351      0.0901
         9        -0.0255     -0.0005     -0.0000      0.0260      0.0173
        10        -0.0000     -0.0000     -0.0011      0.0011      0.0007
        11        -0.0019     -0.0016     -0.0000      0.0035      0.0023
        12        -0.2132     -0.0003     -0.0000      0.2135      0.1423
        13        -0.0000     -0.0000     -0.1590      0.1590      0.1060
        14        -0.0000     -0.0000     -0.0455      0.0455      0.0303
        15        -0.0049     -0.1030     -0.0000      0.1079      0.0719
        16        -0.0000     -0.0000     -0.0001      0.0001      0.0001

 Excitation energies and oscillator strengths:
 
 Excited State   1:      Singlet-A      3.4382 eV  360.61 nm  f=0.2188  <S**2>=0.000
      75 -> 76         0.69802
 This state for optimization and/or second-order correction.
 Total Energy, E(TD-HF/TD-DFT) =  -920.860377549    
 Copying the excited state density for this state as the 1-particle RhoCI density.
 
 Excited State   2:      Singlet-A      3.7322 eV  332.21 nm  f=0.0015  <S**2>=0.000
      74 -> 76         0.66214
      75 -> 77        -0.20985
 
 Excited State   3:      Singlet-A      4.0657 eV  304.95 nm  f=0.0012  <S**2>=0.000
      72 -> 76         0.24286
      74 -> 76         0.13834
      75 -> 77         0.60687
      75 -> 79         0.16776
 
 Excited State   4:      Singlet-A      4.1309 eV  300.14 nm  f=0.0219  <S**2>=0.000
      73 -> 76         0.55339
      74 -> 77        -0.14352
      74 -> 79        -0.11591
      75 -> 78         0.38015
 
 Excited State   5:      Singlet-A      4.2980 eV  288.47 nm  f=0.0013  <S**2>=0.000
      72 -> 76         0.53834
      74 -> 76        -0.16163
      74 -> 78        -0.15066
      75 -> 77        -0.26093
      75 -> 79         0.28972
 
 Excited State   6:      Singlet-A      4.4730 eV  277.19 nm  f=0.0406  <S**2>=0.000
      71 -> 76         0.11140
      72 -> 77         0.11855
      73 -> 76         0.28124
      74 -> 77         0.59953
      75 -> 78        -0.13545
 
 Excited State   7:      Singlet-A      4.7034 eV  263.60 nm  f=0.0200  <S**2>=0.000
      72 -> 76        -0.31803
      73 -> 77        -0.37244
      75 -> 79         0.49477
 
 Excited State   8:      Singlet-A      4.7860 eV  259.06 nm  f=0.0938  <S**2>=0.000
      71 -> 76        -0.14251
      72 -> 77        -0.23152
      73 -> 76        -0.23740
      74 -> 77         0.27483
      74 -> 79         0.23096
      75 -> 78         0.47384
 
 Excited State   9:      Singlet-A      4.8925 eV  253.41 nm  f=0.0159  <S**2>=0.000
      71 -> 76         0.63476
      74 -> 79         0.18490
      75 -> 78         0.15920
      75 -> 80         0.13479
 
 Excited State  10:      Singlet-A      4.9135 eV  252.33 nm  f=0.0007  <S**2>=0.000
      73 -> 77         0.36658
      74 -> 78         0.52934
      75 -> 79         0.24642
 
 Excited State  11:      Singlet-A      5.0217 eV  246.90 nm  f=0.0018  <S**2>=0.000
      71 -> 76        -0.16364
      72 -> 77         0.49797
      74 -> 79         0.43203
 
 Excited State  12:      Singlet-A      5.3152 eV  233.26 nm  f=0.1473  <S**2>=0.000
      71 -> 76        -0.15542
      74 -> 79         0.16781
      75 -> 80         0.65126
 
 Excited State  13:      Singlet-A      5.5244 eV  224.43 nm  f=0.1060  <S**2>=0.000
      70 -> 76        -0.16386
      71 -> 77         0.31931
      72 -> 76        -0.12331
      73 -> 77         0.34770
      73 -> 79         0.17258
      74 -> 78        -0.28770
      74 -> 80         0.14473
      75 -> 79         0.17280
      75 -> 81        -0.21348
 
 Excited State  14:      Singlet-A      5.6123 eV  220.91 nm  f=0.0296  <S**2>=0.000
      71 -> 77         0.38671
      71 -> 79         0.11218
      72 -> 78         0.44228
      74 -> 78         0.21031
      74 -> 80        -0.10668
      75 -> 79        -0.10981
      75 -> 81        -0.21654
 
 Excited State  15:      Singlet-A      5.6329 eV  220.11 nm  f=0.0742  <S**2>=0.000
      72 -> 77         0.12790
      72 -> 79        -0.34458
      73 -> 78         0.57505
      74 -> 79        -0.10280
 
 Excited State  16:      Singlet-A      5.6805 eV  218.26 nm  f=0.0000  <S**2>=0.000
      70 -> 76         0.27829
      71 -> 79         0.11542
      73 -> 79         0.51076
      74 -> 80        -0.32672
      75 -> 81         0.10967
 SavETr:  write IOETrn=   770 NScale= 10 NData=  16 NLR=1 NState=   16 LETran=     298.

 **********************************************************************

            Population analysis using the SCF Density.

 **********************************************************************

 Orbital symmetries:
       Occupied  (A) (A) (A) (A) (A) (A) (A) (A) (A) (A) (A) (A)
                 (A) (A) (A) (A) (A) (A) (A) (A) (A) (A) (A) (A)
                 (A) (A) (A) (A) (A) (A) (A) (A) (A) (A) (A) (A)
                 (A) (A) (A) (A) (A) (A) (A) (A) (A) (A) (A) (A)
                 (A) (A) (A) (A) (A) (A) (A) (A) (A) (A) (A) (A)
                 (A) (A) (A) (A) (A) (A) (A) (A) (A) (A) (A) (A)
                 (A) (A) (A)
       Virtual   (A) (A) (A) (A) (A) (A) (A) (A) (A) (A) (A) (A)
                 (A) (A) (A) (A) (A) (A) (A) (A) (A) (A) (A) (A)
                 (A) (A) (A) (A) (A) (A) (A) (A) (A) (A) (A) (A)
                 (A) (A) (A) (A) (A) (A) (A) (A) (A) (A) (A) (A)
                 (A) (A) (A) (A) (A) (A) (A) (A) (A) (A) (A) (A)
                 (A) (A) (A) (A) (A) (A) (A) (A) (A) (A) (A) (A)
                 (A) (A) (A) (A) (A) (A) (A) (A) (A) (A) (A) (A)
                 (A) (A) (A) (A) (A) (A) (A) (A) (A) (A) (A) (A)
                 (A) (A) (A) (A) (A) (A) (A) (A) (A) (A) (A) (A)
                 (A) (A) (A) (A) (A) (A) (A) (A) (A) (A) (A) (A)
                 (A) (A) (A) (A) (A) (A) (A) (A) (A) (A) (A) (A)
                 (A) (A) (A) (A) (A) (A) (A) (A) (A) (A) (A) (A)
                 (A) (A) (A) (A) (A) (A) (A) (A) (A) (A) (A) (A)
                 (A) (A) (A) (A) (A) (A) (A) (A) (A) (A) (A) (A)
                 (A) (A) (A) (A) (A) (A) (A) (A) (A) (A) (A) (A)
                 (A) (A) (A) (A) (A) (A) (A) (A) (A) (A) (A) (A)
                 (A) (A) (A) (A) (A) (A) (A) (A) (A) (A) (A) (A)
                 (A) (A) (A) (A) (A) (A) (A) (A) (A) (A) (A) (A)
                 (A) (A) (A) (A) (A) (A) (A) (A) (A) (A) (A) (A)
                 (A) (A) (A) (A) (A) (A) (A) (A) (A) (A) (A) (A)
                 (A) (A) (A) (A) (A) (A) (A) (A) (A) (A) (A) (A)
                 (A) (A) (A) (A) (A) (A) (A) (A) (A) (A) (A) (A)
                 (A) (A) (A) (A) (A) (A) (A) (A) (A) (A) (A) (A)
                 (A) (A) (A) (A) (A) (A) (A)
 The electronic state is 1-A.
 Alpha  occ. eigenvalues --  -19.17368 -19.17368 -10.24825 -10.24824 -10.19616
 Alpha  occ. eigenvalues --  -10.19613 -10.19572 -10.19549 -10.19260 -10.19260
 Alpha  occ. eigenvalues --  -10.19173 -10.19173 -10.18897 -10.18897 -10.18217
 Alpha  occ. eigenvalues --  -10.18217 -10.18041 -10.18041 -10.17957 -10.17957
 Alpha  occ. eigenvalues --  -10.17573 -10.17573  -1.05669  -1.05576  -0.86864
 Alpha  occ. eigenvalues --   -0.85950  -0.81393  -0.80918  -0.78718  -0.75041
 Alpha  occ. eigenvalues --   -0.72962  -0.72925  -0.71854  -0.70540  -0.63093
 Alpha  occ. eigenvalues --   -0.62693  -0.60971  -0.60939  -0.59624  -0.56718
 Alpha  occ. eigenvalues --   -0.54753  -0.54459  -0.51760  -0.50191  -0.48938
 Alpha  occ. eigenvalues --   -0.48812  -0.46340  -0.46335  -0.44534  -0.43459
 Alpha  occ. eigenvalues --   -0.42738  -0.42099  -0.41715  -0.41435  -0.41289
 Alpha  occ. eigenvalues --   -0.39684  -0.39127  -0.38914  -0.38614  -0.36755
 Alpha  occ. eigenvalues --   -0.36112  -0.35841  -0.35078  -0.33890  -0.33664
 Alpha  occ. eigenvalues --   -0.33026  -0.31516  -0.30485  -0.29779  -0.28593
 Alpha  occ. eigenvalues --   -0.25184  -0.22749  -0.22444  -0.20694  -0.18921
 Alpha virt. eigenvalues --   -0.04655  -0.01958   0.00130   0.00418   0.03026
 Alpha virt. eigenvalues --    0.04988   0.06947   0.07039   0.09748   0.09889
 Alpha virt. eigenvalues --    0.10799   0.11321   0.11981   0.12145   0.14354
 Alpha virt. eigenvalues --    0.15407   0.17459   0.17497   0.18573   0.18583
 Alpha virt. eigenvalues --    0.19751   0.20123   0.20638   0.21722   0.23262
 Alpha virt. eigenvalues --    0.24520   0.25721   0.27330   0.27579   0.29555
 Alpha virt. eigenvalues --    0.30172   0.31454   0.32160   0.33062   0.33748
 Alpha virt. eigenvalues --    0.34872   0.36307   0.36935   0.37414   0.39381
 Alpha virt. eigenvalues --    0.40603   0.48541   0.48593   0.49817   0.50569
 Alpha virt. eigenvalues --    0.50583   0.51768   0.52649   0.52697   0.53359
 Alpha virt. eigenvalues --    0.54075   0.54636   0.55544   0.55805   0.55860
 Alpha virt. eigenvalues --    0.56416   0.57070   0.57256   0.57702   0.59392
 Alpha virt. eigenvalues --    0.59545   0.60231   0.60561   0.60579   0.60714
 Alpha virt. eigenvalues --    0.61424   0.61968   0.62496   0.62769   0.62890
 Alpha virt. eigenvalues --    0.63217   0.63271   0.64225   0.64641   0.64884
 Alpha virt. eigenvalues --    0.65579   0.66889   0.67613   0.67956   0.68716
 Alpha virt. eigenvalues --    0.70796   0.71958   0.73746   0.75256   0.77957
 Alpha virt. eigenvalues --    0.78916   0.79070   0.81897   0.82303   0.83416
 Alpha virt. eigenvalues --    0.84168   0.84386   0.84670   0.84902   0.86022
 Alpha virt. eigenvalues --    0.86576   0.87658   0.88508   0.89389   0.89427
 Alpha virt. eigenvalues --    0.89976   0.90673   0.91033   0.91845   0.93444
 Alpha virt. eigenvalues --    0.94387   0.94835   0.95618   0.96012   0.98532
 Alpha virt. eigenvalues --    0.98656   1.00239   1.01247   1.02347   1.02472
 Alpha virt. eigenvalues --    1.03446   1.05099   1.05798   1.07002   1.07776
 Alpha virt. eigenvalues --    1.09120   1.10437   1.11527   1.12880   1.14251
 Alpha virt. eigenvalues --    1.15359   1.16538   1.17895   1.20717   1.22694
 Alpha virt. eigenvalues --    1.24015   1.25743   1.25855   1.28473   1.29261
 Alpha virt. eigenvalues --    1.29564   1.30850   1.30953   1.32965   1.34561
 Alpha virt. eigenvalues --    1.36292   1.36775   1.38094   1.40798   1.42441
 Alpha virt. eigenvalues --    1.42715   1.44309   1.45794   1.46554   1.47006
 Alpha virt. eigenvalues --    1.47753   1.48663   1.49552   1.50255   1.51129
 Alpha virt. eigenvalues --    1.52127   1.52256   1.54915   1.56121   1.59426
 Alpha virt. eigenvalues --    1.61190   1.62618   1.70772   1.71912   1.74739
 Alpha virt. eigenvalues --    1.75841   1.75946   1.77215   1.78678   1.79533
 Alpha virt. eigenvalues --    1.79776   1.80518   1.81181   1.82797   1.83064
 Alpha virt. eigenvalues --    1.85496   1.86377   1.87741   1.89090   1.89873
 Alpha virt. eigenvalues --    1.91262   1.91655   1.92134   1.92251   1.94201
 Alpha virt. eigenvalues --    1.94265   1.95973   1.98101   1.98977   1.99745
 Alpha virt. eigenvalues --    2.02045   2.02295   2.04243   2.05488   2.05961
 Alpha virt. eigenvalues --    2.06194   2.07218   2.08295   2.14074   2.14407
 Alpha virt. eigenvalues --    2.15099   2.15209   2.19210   2.20603   2.21595
 Alpha virt. eigenvalues --    2.21866   2.23285   2.25128   2.27998   2.28459
 Alpha virt. eigenvalues --    2.29927   2.32078   2.32559   2.33178   2.34144
 Alpha virt. eigenvalues --    2.34653   2.35167   2.36216   2.36455   2.39787
 Alpha virt. eigenvalues --    2.41089   2.42038   2.44433   2.49491   2.49874
 Alpha virt. eigenvalues --    2.49922   2.55269   2.57919   2.60367   2.60660
 Alpha virt. eigenvalues --    2.61734   2.63483   2.64071   2.64453   2.65791
 Alpha virt. eigenvalues --    2.67231   2.68666   2.68909   2.70613   2.73594
 Alpha virt. eigenvalues --    2.75070   2.76760   2.79561   2.82062   2.83467
 Alpha virt. eigenvalues --    2.85027   2.86556   2.86615   2.87939   2.90756
 Alpha virt. eigenvalues --    2.92365   2.97332   3.02962   3.05206   3.05836
 Alpha virt. eigenvalues --    3.11693   3.18810   3.33861   3.38269   3.46116
 Alpha virt. eigenvalues --    3.48334   3.94437   4.03875   4.09779   4.10345
 Alpha virt. eigenvalues --    4.10901   4.11473   4.14389   4.14975   4.15710
 Alpha virt. eigenvalues --    4.16730   4.21591   4.26565   4.30574   4.31468
 Alpha virt. eigenvalues --    4.40036   4.40877   4.43376   4.48559   4.55553
 Alpha virt. eigenvalues --    4.61571   4.78000   4.87132
          Condensed to atoms (all electrons):
               1          2          3          4          5          6
     1  C    4.909264   0.525372  -0.009455  -0.038199  -0.025663   0.497737
     2  C    0.525372   5.066091   0.456691  -0.038993  -0.063759  -0.020261
     3  C   -0.009455   0.456691   4.862822   0.454502  -0.034803  -0.036497
     4  C   -0.038199  -0.038993   0.454502   4.743602   0.458004  -0.008258
     5  C   -0.025663  -0.063759  -0.034803   0.458004   5.073824   0.524134
     6  C    0.497737  -0.020261  -0.036497  -0.008258   0.524134   4.903643
     7  H    0.357314  -0.038944   0.003425   0.000909   0.004667  -0.043937
     8  H   -0.045636   0.343641  -0.033339   0.005566   0.000605   0.004857
     9  C    0.007436  -0.077332   0.385203  -0.016184   0.011228  -0.000567
    10  C   -0.000255   0.013548  -0.025548   0.443280  -0.077098   0.007721
    11  H    0.004703   0.000506   0.004257  -0.044429   0.354851  -0.045528
    12  H   -0.040927   0.004274   0.001000   0.002902  -0.037712   0.355275
    13  C    0.000061  -0.000442  -0.054673  -0.004101   0.009017  -0.000436
    14  C   -0.000180   0.008821   0.008543  -0.052667  -0.000497   0.000034
    15  H    0.000006  -0.000193   0.004875  -0.038674  -0.008628   0.000222
    16  H   -0.000000   0.000015   0.000760   0.002755  -0.000205   0.000004
    17  C    0.000000   0.000000  -0.000001   0.000000  -0.000000  -0.000000
    18  C   -0.000000   0.000001  -0.000001  -0.000000   0.000000  -0.000000
    19  C   -0.000002   0.000010   0.000080  -0.000000  -0.000000   0.000000
    20  C    0.000039  -0.000312  -0.001057   0.000080  -0.000001  -0.000001
    21  C   -0.000001   0.000010  -0.000312   0.000010   0.000001   0.000000
    22  C   -0.000000  -0.000001   0.000039  -0.000002  -0.000000   0.000000
    23  H   -0.000000  -0.000001   0.000000   0.000000  -0.000000   0.000000
    24  H    0.000000  -0.000000   0.000000  -0.000000  -0.000000   0.000000
    25  H   -0.000000   0.000000  -0.000000   0.000000  -0.000000   0.000000
    26  C    0.000001  -0.000062  -0.000013   0.000000  -0.000000   0.000000
    27  C    0.001311  -0.019174  -0.066334   0.007619  -0.000068  -0.000037
    28  H    0.000002  -0.000008  -0.000254  -0.000061  -0.000003   0.000000
    29  H   -0.000000  -0.000000  -0.000000   0.000000   0.000000   0.000000
    30  C   -0.000008   0.003143  -0.011745   0.000005  -0.000010  -0.000004
    31  C   -0.000066  -0.001132   0.001139   0.000009  -0.000000   0.000000
    32  H    0.000001   0.000044  -0.000013  -0.000000   0.000000  -0.000000
    33  O    0.000000  -0.000059   0.002089   0.000300   0.000000  -0.000000
    34  H   -0.000000   0.000006   0.000039  -0.000095  -0.000001   0.000000
    35  O   -0.001250  -0.004616  -0.005844  -0.000476   0.000001   0.000010
    36  H    0.000105   0.000620   0.000144   0.000011  -0.000001  -0.000002
               7          8          9         10         11         12
     1  C    0.357314  -0.045636   0.007436  -0.000255   0.004703  -0.040927
     2  C   -0.038944   0.343641  -0.077332   0.013548   0.000506   0.004274
     3  C    0.003425  -0.033339   0.385203  -0.025548   0.004257   0.001000
     4  C    0.000909   0.005566  -0.016184   0.443280  -0.044429   0.002902
     5  C    0.004667   0.000605   0.011228  -0.077098   0.354851  -0.037712
     6  C   -0.043937   0.004857  -0.000567   0.007721  -0.045528   0.355275
     7  H    0.605840  -0.006398  -0.000155   0.000007  -0.000206  -0.004823
     8  H   -0.006398   0.600802  -0.014002  -0.000192   0.000019  -0.000195
     9  C   -0.000155  -0.014002   5.224975  -0.056709  -0.000149   0.000014
    10  C    0.000007  -0.000192  -0.056709   5.099534  -0.009103  -0.000208
    11  H   -0.000206   0.000019  -0.000149  -0.009103   0.609254  -0.005397
    12  H   -0.004823  -0.000195   0.000014  -0.000208  -0.005397   0.601087
    13  C   -0.000000   0.000015  -0.029565   0.457665   0.000377   0.000004
    14  C    0.000002  -0.000225   0.422240   0.005687   0.000010  -0.000000
    15  H   -0.000000   0.000003   0.000394   0.349855   0.006855  -0.000014
    16  H   -0.000000  -0.000000   0.004004  -0.027290  -0.000012  -0.000000
    17  C    0.000000   0.000000  -0.000037   0.000000   0.000000   0.000000
    18  C    0.000000  -0.000003  -0.000068  -0.000000  -0.000000  -0.000000
    19  C    0.000000  -0.000061   0.007619   0.000000   0.000000  -0.000000
    20  C   -0.000000  -0.000254  -0.066337  -0.000013  -0.000000   0.000000
    21  C   -0.000000  -0.000008  -0.019178  -0.000062   0.000000  -0.000000
    22  C   -0.000000   0.000002   0.001311   0.000001  -0.000000   0.000000
    23  H   -0.000000  -0.000001   0.000009   0.000000  -0.000000   0.000000
    24  H   -0.000000  -0.000000   0.000000   0.000000  -0.000000   0.000000
    25  H    0.000000   0.000000   0.000001  -0.000000   0.000000  -0.000000
    26  C   -0.000000   0.000060  -0.000842  -0.000000  -0.000000   0.000000
    27  C    0.000004   0.002523   0.319776  -0.000842   0.000001   0.000000
    28  H   -0.000000  -0.000005   0.002521   0.000060   0.000000  -0.000000
    29  H    0.000000  -0.000000   0.000004  -0.000000   0.000000  -0.000000
    30  C    0.000015   0.012913  -0.049940   0.000028   0.000000  -0.000000
    31  C   -0.000001   0.002686   0.007205  -0.000000   0.000000  -0.000000
    32  H    0.000000   0.000010  -0.000093   0.000000  -0.000000  -0.000000
    33  O   -0.000000  -0.000001  -0.061169   0.005195  -0.000000   0.000000
    34  H    0.000000   0.000000   0.006604   0.000938  -0.000000  -0.000000
    35  O   -0.000021  -0.006371   0.004020   0.000008   0.000000   0.000000
    36  H    0.000004   0.000644  -0.000417  -0.000000  -0.000000  -0.000000
              13         14         15         16         17         18
     1  C    0.000061  -0.000180   0.000006  -0.000000   0.000000  -0.000000
     2  C   -0.000442   0.008821  -0.000193   0.000015   0.000000   0.000001
     3  C   -0.054673   0.008543   0.004875   0.000760  -0.000001  -0.000001
     4  C   -0.004101  -0.052667  -0.038674   0.002755   0.000000  -0.000000
     5  C    0.009017  -0.000497  -0.008628  -0.000205  -0.000000   0.000000
     6  C   -0.000436   0.000034   0.000222   0.000004  -0.000000  -0.000000
     7  H   -0.000000   0.000002  -0.000000  -0.000000   0.000000   0.000000
     8  H    0.000015  -0.000225   0.000003  -0.000000   0.000000  -0.000003
     9  C   -0.029565   0.422240   0.000394   0.004004  -0.000037  -0.000068
    10  C    0.457665   0.005687   0.349855  -0.027290   0.000000  -0.000000
    11  H    0.000377   0.000010   0.006855  -0.000012   0.000000  -0.000000
    12  H    0.000004  -0.000000  -0.000014  -0.000000   0.000000  -0.000000
    13  C    5.162053   0.422247  -0.040801   0.341402   0.000000  -0.000000
    14  C    0.422247   4.764091   0.003583  -0.043807  -0.000004  -0.000010
    15  H   -0.040801   0.003583   0.595012  -0.005434   0.000000  -0.000000
    16  H    0.341402  -0.043807  -0.005434   0.605174  -0.000000   0.000000
    17  C    0.000000  -0.000004   0.000000  -0.000000   4.903644   0.524135
    18  C   -0.000000  -0.000010  -0.000000   0.000000   0.524135   5.073825
    19  C    0.000009   0.000005   0.000000  -0.000000  -0.008259   0.458005
    20  C    0.001139  -0.011746   0.000000  -0.000013  -0.036497  -0.034803
    21  C   -0.001133   0.003145  -0.000001   0.000044  -0.020261  -0.063759
    22  C   -0.000066  -0.000008  -0.000000   0.000001   0.497735  -0.025662
    23  H   -0.000000  -0.000000   0.000000  -0.000000   0.000222  -0.008628
    24  H   -0.000000  -0.000000   0.000000  -0.000000   0.355275  -0.037712
    25  H    0.000000   0.000000  -0.000000  -0.000000  -0.045528   0.354850
    26  C   -0.000000   0.000028   0.000000   0.000000   0.007721  -0.077099
    27  C    0.007205  -0.049937   0.000009  -0.000093  -0.000567   0.011229
    28  H    0.002687   0.012918  -0.000001   0.000010   0.004857   0.000605
    29  H   -0.000001   0.000015  -0.000000   0.000000  -0.043937   0.004667
    30  C   -0.000282   0.006031  -0.000000   0.000002   0.000034  -0.000497
    31  C    0.000001  -0.000282  -0.000000  -0.000000  -0.000436   0.009016
    32  H   -0.000000   0.000002  -0.000000   0.000000   0.000004  -0.000205
    33  O   -0.058979   0.254435  -0.000061  -0.005984   0.000010   0.000001
    34  H   -0.005184  -0.031223  -0.000019   0.009041  -0.000002  -0.000001
    35  O   -0.000010   0.000165   0.000000  -0.000000  -0.000000   0.000000
    36  H    0.000000   0.000012  -0.000000   0.000000   0.000000  -0.000001
              19         20         21         22         23         24
     1  C   -0.000002   0.000039  -0.000001  -0.000000  -0.000000   0.000000
     2  C    0.000010  -0.000312   0.000010  -0.000001  -0.000001  -0.000000
     3  C    0.000080  -0.001057  -0.000312   0.000039   0.000000   0.000000
     4  C   -0.000000   0.000080   0.000010  -0.000002   0.000000  -0.000000
     5  C   -0.000000  -0.000001   0.000001  -0.000000  -0.000000  -0.000000
     6  C    0.000000  -0.000001   0.000000   0.000000   0.000000   0.000000
     7  H    0.000000  -0.000000  -0.000000  -0.000000  -0.000000  -0.000000
     8  H   -0.000061  -0.000254  -0.000008   0.000002  -0.000001  -0.000000
     9  C    0.007619  -0.066337  -0.019178   0.001311   0.000009   0.000000
    10  C    0.000000  -0.000013  -0.000062   0.000001   0.000000   0.000000
    11  H    0.000000  -0.000000   0.000000  -0.000000  -0.000000  -0.000000
    12  H   -0.000000   0.000000  -0.000000   0.000000   0.000000   0.000000
    13  C    0.000009   0.001139  -0.001133  -0.000066  -0.000000  -0.000000
    14  C    0.000005  -0.011746   0.003145  -0.000008  -0.000000  -0.000000
    15  H    0.000000   0.000000  -0.000001  -0.000000   0.000000   0.000000
    16  H   -0.000000  -0.000013   0.000044   0.000001  -0.000000  -0.000000
    17  C   -0.008259  -0.036497  -0.020261   0.497735   0.000222   0.355275
    18  C    0.458005  -0.034803  -0.063759  -0.025662  -0.008628  -0.037712
    19  C    4.743600   0.454506  -0.038996  -0.038199  -0.038674   0.002901
    20  C    0.454506   4.862825   0.456691  -0.009456   0.004875   0.001000
    21  C   -0.038996   0.456691   5.066095   0.525369  -0.000193   0.004274
    22  C   -0.038199  -0.009456   0.525369   4.909273   0.000006  -0.040927
    23  H   -0.038674   0.004875  -0.000193   0.000006   0.595010  -0.000014
    24  H    0.002901   0.001000   0.004274  -0.040927  -0.000014   0.601088
    25  H   -0.044429   0.004257   0.000506   0.004703   0.006855  -0.005397
    26  C    0.443277  -0.025547   0.013548  -0.000255   0.349855  -0.000208
    27  C   -0.016186   0.385213  -0.077332   0.007436   0.000394   0.000014
    28  H    0.005566  -0.033340   0.343638  -0.045634   0.000003  -0.000195
    29  H    0.000909   0.003425  -0.038943   0.357314  -0.000000  -0.004823
    30  C   -0.052667   0.008540   0.008822  -0.000180   0.003583  -0.000000
    31  C   -0.004103  -0.054669  -0.000442   0.000061  -0.040800   0.000004
    32  H    0.002755   0.000760   0.000015  -0.000000  -0.005434  -0.000000
    33  O   -0.000477  -0.005844  -0.004619  -0.001250   0.000000   0.000000
    34  H    0.000011   0.000144   0.000620   0.000105  -0.000000  -0.000000
    35  O    0.000300   0.002089  -0.000059   0.000000  -0.000061   0.000000
    36  H   -0.000095   0.000039   0.000006  -0.000000  -0.000019  -0.000000
              25         26         27         28         29         30
     1  C   -0.000000   0.000001   0.001311   0.000002  -0.000000  -0.000008
     2  C    0.000000  -0.000062  -0.019174  -0.000008  -0.000000   0.003143
     3  C   -0.000000  -0.000013  -0.066334  -0.000254  -0.000000  -0.011745
     4  C    0.000000   0.000000   0.007619  -0.000061   0.000000   0.000005
     5  C   -0.000000  -0.000000  -0.000068  -0.000003   0.000000  -0.000010
     6  C    0.000000   0.000000  -0.000037   0.000000   0.000000  -0.000004
     7  H    0.000000  -0.000000   0.000004  -0.000000   0.000000   0.000015
     8  H    0.000000   0.000060   0.002523  -0.000005  -0.000000   0.012913
     9  C    0.000001  -0.000842   0.319776   0.002521   0.000004  -0.049940
    10  C   -0.000000  -0.000000  -0.000842   0.000060  -0.000000   0.000028
    11  H    0.000000  -0.000000   0.000001   0.000000   0.000000   0.000000
    12  H   -0.000000   0.000000   0.000000  -0.000000  -0.000000  -0.000000
    13  C    0.000000  -0.000000   0.007205   0.002687  -0.000001  -0.000282
    14  C    0.000000   0.000028  -0.049937   0.012918   0.000015   0.006031
    15  H   -0.000000   0.000000   0.000009  -0.000001  -0.000000  -0.000000
    16  H   -0.000000   0.000000  -0.000093   0.000010   0.000000   0.000002
    17  C   -0.045528   0.007721  -0.000567   0.004857  -0.043937   0.000034
    18  C    0.354850  -0.077099   0.011229   0.000605   0.004667  -0.000497
    19  C   -0.044429   0.443277  -0.016186   0.005566   0.000909  -0.052667
    20  C    0.004257  -0.025547   0.385213  -0.033340   0.003425   0.008540
    21  C    0.000506   0.013548  -0.077332   0.343638  -0.038943   0.008822
    22  C    0.004703  -0.000255   0.007436  -0.045634   0.357314  -0.000180
    23  H    0.006855   0.349855   0.000394   0.000003  -0.000000   0.003583
    24  H   -0.005397  -0.000208   0.000014  -0.000195  -0.004823  -0.000000
    25  H    0.609255  -0.009103  -0.000149   0.000019  -0.000206   0.000010
    26  C   -0.009103   5.099539  -0.056708  -0.000192   0.000007   0.005689
    27  C   -0.000149  -0.056708   5.224957  -0.014003  -0.000155   0.422246
    28  H    0.000019  -0.000192  -0.014003   0.600802  -0.006398  -0.000225
    29  H   -0.000206   0.000007  -0.000155  -0.006398   0.605840   0.000002
    30  C    0.000010   0.005689   0.422246  -0.000225   0.000002   4.764081
    31  C    0.000377   0.457667  -0.029572   0.000015  -0.000000   0.422247
    32  H   -0.000012  -0.027291   0.004004  -0.000000  -0.000000  -0.043807
    33  O    0.000000   0.000008   0.004019  -0.006375  -0.000021   0.000165
    34  H   -0.000000  -0.000000  -0.000417   0.000644   0.000004   0.000012
    35  O   -0.000000   0.005195  -0.061167  -0.000001  -0.000000   0.254440
    36  H   -0.000000   0.000937   0.006604   0.000000   0.000000  -0.031221
              31         32         33         34         35         36
     1  C   -0.000066   0.000001   0.000000  -0.000000  -0.001250   0.000105
     2  C   -0.001132   0.000044  -0.000059   0.000006  -0.004616   0.000620
     3  C    0.001139  -0.000013   0.002089   0.000039  -0.005844   0.000144
     4  C    0.000009  -0.000000   0.000300  -0.000095  -0.000476   0.000011
     5  C   -0.000000   0.000000   0.000000  -0.000001   0.000001  -0.000001
     6  C    0.000000  -0.000000  -0.000000   0.000000   0.000010  -0.000002
     7  H   -0.000001   0.000000  -0.000000   0.000000  -0.000021   0.000004
     8  H    0.002686   0.000010  -0.000001   0.000000  -0.006371   0.000644
     9  C    0.007205  -0.000093  -0.061169   0.006604   0.004020  -0.000417
    10  C   -0.000000   0.000000   0.005195   0.000938   0.000008  -0.000000
    11  H    0.000000  -0.000000  -0.000000  -0.000000   0.000000  -0.000000
    12  H   -0.000000  -0.000000   0.000000  -0.000000   0.000000  -0.000000
    13  C    0.000001  -0.000000  -0.058979  -0.005184  -0.000010   0.000000
    14  C   -0.000282   0.000002   0.254435  -0.031223   0.000165   0.000012
    15  H   -0.000000  -0.000000  -0.000061  -0.000019   0.000000  -0.000000
    16  H   -0.000000   0.000000  -0.005984   0.009041  -0.000000   0.000000
    17  C   -0.000436   0.000004   0.000010  -0.000002  -0.000000   0.000000
    18  C    0.009016  -0.000205   0.000001  -0.000001   0.000000  -0.000001
    19  C   -0.004103   0.002755  -0.000477   0.000011   0.000300  -0.000095
    20  C   -0.054669   0.000760  -0.005844   0.000144   0.002089   0.000039
    21  C   -0.000442   0.000015  -0.004619   0.000620  -0.000059   0.000006
    22  C    0.000061  -0.000000  -0.001250   0.000105   0.000000  -0.000000
    23  H   -0.040800  -0.005434   0.000000  -0.000000  -0.000061  -0.000019
    24  H    0.000004  -0.000000   0.000000  -0.000000   0.000000  -0.000000
    25  H    0.000377  -0.000012   0.000000  -0.000000  -0.000000  -0.000000
    26  C    0.457667  -0.027291   0.000008  -0.000000   0.005195   0.000937
    27  C   -0.029572   0.004004   0.004019  -0.000417  -0.061167   0.006604
    28  H    0.000015  -0.000000  -0.006375   0.000644  -0.000001   0.000000
    29  H   -0.000000  -0.000000  -0.000021   0.000004  -0.000000   0.000000
    30  C    0.422247  -0.043807   0.000165   0.000012   0.254440  -0.031221
    31  C    5.162045   0.341403  -0.000010   0.000000  -0.058980  -0.005185
    32  H    0.341403   0.605175  -0.000000   0.000000  -0.005984   0.009040
    33  O   -0.000010  -0.000000   8.263849   0.240620  -0.000000  -0.000000
    34  H    0.000000   0.000000   0.240620   0.372305  -0.000000   0.000000
    35  O   -0.058980  -0.005984  -0.000000  -0.000000   8.263847   0.240619
    36  H   -0.005185   0.009040  -0.000000   0.000000   0.240619   0.372305
 Mulliken charges:
               1
     1  C   -0.141709
     2  C   -0.157504
     3  C    0.094280
     4  C    0.122585
     5  C   -0.187882
     6  C   -0.138109
     7  H    0.122299
     8  H    0.132345
     9  C   -0.011820
    10  C   -0.186206
    11  H    0.123993
    12  H    0.124719
    13  C   -0.208209
    14  C    0.278573
    15  H    0.133012
    16  H    0.119626
    17  C   -0.138108
    18  C   -0.187885
    19  C    0.122591
    20  C    0.094267
    21  C   -0.157496
    22  C   -0.141714
    23  H    0.133013
    24  H    0.124719
    25  H    0.123992
    26  C   -0.186211
    27  C   -0.011819
    28  H    0.132349
    29  H    0.122299
    30  C    0.278576
    31  C   -0.208194
    32  H    0.119625
    33  O   -0.625842
    34  H    0.405848
    35  O   -0.625853
    36  H    0.405848
 Sum of Mulliken charges =  -0.00000
 Mulliken charges with hydrogens summed into heavy atoms:
               1
     1  C   -0.019410
     2  C   -0.025159
     3  C    0.094280
     4  C    0.122585
     5  C   -0.063890
     6  C   -0.013389
     9  C   -0.011820
    10  C   -0.053194
    13  C   -0.088583
    14  C    0.278573
    17  C   -0.013389
    18  C   -0.063892
    19  C    0.122591
    20  C    0.094267
    21  C   -0.025147
    22  C   -0.019416
    26  C   -0.053198
    27  C   -0.011819
    30  C    0.278576
    31  C   -0.088569
    33  O   -0.219994
    35  O   -0.220005
 Electronic spatial extent (au):  <R**2>=           5999.4210
 Charge=             -0.0000 electrons
 Dipole moment (field-independent basis, Debye):
    X=             -0.0000    Y=              0.0000    Z=              0.1415  Tot=              0.1415
 Quadrupole moment (field-independent basis, Debye-Ang):
   XX=           -116.7353   YY=            -97.6032   ZZ=           -128.4731
   XY=              5.6180   XZ=             -0.0000   YZ=              0.0007
 Traceless Quadrupole moment (field-independent basis, Debye-Ang):
   XX=             -2.4648   YY=             16.6674   ZZ=            -14.2026
   XY=              5.6180   XZ=             -0.0000   YZ=              0.0007
 Octapole moment (field-independent basis, Debye-Ang**2):
  XXX=             -0.0008  YYY=              0.0029  ZZZ=            -15.6971  XYY=              0.0003
  XXY=              0.0004  XXZ=             22.3143  XZZ=             -0.0003  YZZ=             -0.0015
  YYZ=            -31.2713  XYZ=            -17.5485
 Hexadecapole moment (field-independent basis, Debye-Ang**3):
 XXXX=          -4976.5917 YYYY=          -1724.0454 ZZZZ=           -750.0547 XXXY=             66.7650
 XXXZ=             -0.0003 YYYX=             15.7991 YYYZ=              0.0031 ZZZX=             -0.0014
 ZZZY=              0.0059 XXYY=          -1171.3040 XXZZ=          -1039.9391 YYZZ=           -413.0053
 XXYZ=              0.0020 YYXZ=              0.0003 ZZXY=            -33.7753
 N-N= 1.677058554252D+03 E-N=-5.494147847910D+03  KE= 9.122819840681D+02
 Unable to Open any file for archive entry.
 1\1\GINC-CCC139\SP\RB3LYP TD-FC\6-31G(d)\C20H14O2\ROOT\20-Feb-2025\0\\
 # td=(nstat=16) b3lyp/6-31g(d)\\binol | No.8\\0,1\C,0,-3.02826,-1.8734
 38,-1.295175\C,0,-1.877577,-1.398384,-0.704475\C,0,-1.832797,-0.146974
 ,-0.02476\C,0,-3.025808,0.65191,-0.114219\C,0,-4.211466,0.121045,-0.68
 9715\C,0,-4.228443,-1.130559,-1.255751\H,0,-3.003952,-2.829024,-1.8130
 78\H,0,-0.974087,-1.9813,-0.803314\C,0,-0.649811,0.376363,0.6504\C,0,-
 2.985981,2.012105,0.279953\H,0,-5.100419,0.747842,-0.702485\H,0,-5.135
 6,-1.525939,-1.704222\C,0,-1.812569,2.562118,0.715173\C,0,-0.654464,1.
 759553,0.861026\H,0,-3.885193,2.617419,0.198667\H,0,-1.757818,3.615814
 ,0.984453\C,0,4.228389,1.130621,-1.25577\C,0,4.21145,-0.120995,-0.6897
 56\C,0,3.025816,-0.651894,-0.114243\C,0,1.832789,0.146961,-0.024761\C,
 0,1.877529,1.398388,-0.704446\C,0,3.028192,1.87348,-1.295154\H,0,3.885
 244,-2.617394,0.198596\H,0,5.135531,1.52603,-1.704243\H,0,5.100417,-0.
 747772,-0.70255\C,0,2.986022,-2.012097,0.279908\C,0,0.649822,-0.3764,0
 .650409\H,0,0.974025,1.981295,-0.803235\H,0,3.003856,2.829081,-1.81302
 8\C,0,0.654515,-1.759586,0.861056\C,0,1.812629,-2.562134,0.715148\H,0,
 1.757896,-3.615839,0.984397\O,0,0.445236,2.321559,1.461824\H,0,0.27477
 2,3.263942,1.611076\O,0,-0.445207,-2.321636,1.461791\H,0,-0.274762,-3.
 264035,1.610957\\Version=ES64L-G16RevC.02\State=1-A\HF=-920.9867287\RM
 SD=6.658e-09\PG=C01 [X(C20H14O2)]\\@
 The archive entry for this job was punched.


 LIFE CAN ONLY BE UNDERSTOOD BACKWARD, BUT MUST
 BE LIVED FORWARD. -- KIRKEGAARD
 Job cpu time:       0 days  0 hours 41 minutes 10.6 seconds.
 Elapsed time:       0 days  0 hours  5 minutes 19.4 seconds.
 File lengths (MBytes):  RWF=   1295 Int=      0 D2E=      0 Chk=     78 Scr=      1
 Normal termination of Gaussian 16 at Thu Feb 20 09:32:17 2025.
