 Entering Gaussian System, Link 0=/apl/gaussian/16c02/g16/._.g16
 Initial command:
 /apl/gaussian/16c02/g16/l1.exe "/lwork/users/ux8/8279361.ccpbs1/gaussian/Gau-568685.inp" -scrdir="/lwork/users/ux8/8279361.ccpbs1/gaussian/"
 Default CPUs for threads: 48,49,50,51,52,53,54,55
 Default is to use a total of   8 processors:
                                8 via shared-memory
                                1 via Linda
 Entering Link 1 = /apl/gaussian/16c02/g16/l1.exe PID=    568795.
  
 Copyright (c) 1988-2021, Gaussian, Inc.  All Rights Reserved.
  
 This is part of the Gaussian(R) 16 program.  It is based on
 the Gaussian(R) 09 system (copyright 2009, Gaussian, Inc.),
 the Gaussian(R) 03 system (copyright 2003, Gaussian, Inc.),
 the Gaussian(R) 98 system (copyright 1998, Gaussian, Inc.),
 the Gaussian(R) 94 system (copyright 1995, Gaussian, Inc.),
 the Gaussian 92(TM) system (copyright 1992, Gaussian, Inc.),
 the Gaussian 90(TM) system (copyright 1990, Gaussian, Inc.),
 the Gaussian 88(TM) system (copyright 1988, Gaussian, Inc.),
 the Gaussian 86(TM) system (copyright 1986, Carnegie Mellon
 University), and the Gaussian 82(TM) system (copyright 1983,
 Carnegie Mellon University). Gaussian is a federally registered
 trademark of Gaussian, Inc.
  
 This software contains proprietary and confidential information,
 including trade secrets, belonging to Gaussian, Inc.
  
 This software is provided under written license and may be
 used, copied, transmitted, or stored only in accord with that
 written license.
  
 The following legend is applicable only to US Government
 contracts under FAR:
  
                    RESTRICTED RIGHTS LEGEND
  
 Use, reproduction and disclosure by the US Government is
 subject to restrictions as set forth in subparagraphs (a)
 and (c) of the Commercial Computer Software - Restricted
 Rights clause in FAR 52.227-19.
  
 Gaussian, Inc.
 340 Quinnipiac St., Bldg. 40, Wallingford CT 06492
  
  
 ---------------------------------------------------------------
 Warning -- This program may not be used in any manner that
 competes with the business of Gaussian, Inc. or will provide
 assistance to any competitor of Gaussian, Inc.  The licensee
 of this program is prohibited from giving any competitor of
 Gaussian, Inc. access to this program.  By using this program,
 the user acknowledges that Gaussian, Inc. is engaged in the
 business of creating and licensing software in the field of
 computational chemistry and represents and warrants to the
 licensee that it is not a competitor of Gaussian, Inc. and that
 it will not use this program in any manner prohibited above.
 ---------------------------------------------------------------
  

 Cite this work as:
 Gaussian 16, Revision C.02,
 M. J. Frisch, G. W. Trucks, H. B. Schlegel, G. E. Scuseria, 
 M. A. Robb, J. R. Cheeseman, G. Scalmani, V. Barone, 
 G. A. Petersson, H. Nakatsuji, X. Li, M. Caricato, A. V. Marenich, 
 J. Bloino, B. G. Janesko, R. Gomperts, B. Mennucci, H. P. Hratchian, 
 J. V. Ortiz, A. F. Izmaylov, J. L. Sonnenberg, D. Williams-Young, 
 F. Ding, F. Lipparini, F. Egidi, J. Goings, B. Peng, A. Petrone, 
 T. Henderson, D. Ranasinghe, V. G. Zakrzewski, J. Gao, N. Rega, 
 G. Zheng, W. Liang, M. Hada, M. Ehara, K. Toyota, R. Fukuda, 
 J. Hasegawa, M. Ishida, T. Nakajima, Y. Honda, O. Kitao, H. Nakai, 
 T. Vreven, K. Throssell, J. A. Montgomery, Jr., J. E. Peralta, 
 F. Ogliaro, M. J. Bearpark, J. J. Heyd, E. N. Brothers, K. N. Kudin, 
 V. N. Staroverov, T. A. Keith, R. Kobayashi, J. Normand, 
 K. Raghavachari, A. P. Rendell, J. C. Burant, S. S. Iyengar, 
 J. Tomasi, M. Cossi, J. M. Millam, M. Klene, C. Adamo, R. Cammi, 
 J. W. Ochterski, R. L. Martin, K. Morokuma, O. Farkas, 
 J. B. Foresman, and D. J. Fox, Gaussian, Inc., Wallingford CT, 2019.
 
 ******************************************
 Gaussian 16:  ES64L-G16RevC.02  7-Dec-2021
                20-Feb-2025 
 ******************************************
 %chk=binol.007.tddft.chk
 %mem=9600MB
 SetSPE:  set environment variable "OMP_PROC_BIND" = "true"
 SetSPE:  set environment variable "OMP_PLACES" = "{48},{49},{50},{51},{52},{53},{54},{55}"
 ------------------------------
 # td=(nstat=16) b3lyp/6-31g(d)
 ------------------------------
 1/38=1,172=1/1;
 2/12=2,17=6,18=5,40=1/2;
 3/5=1,6=6,7=1,11=9,25=1,30=1,74=-5/1,2,3,8;
 4//1;
 5/5=2,38=5/2;
 8/6=1,10=2,108=16/1;
 9/41=16,42=1,70=2/14;
 6/7=2,8=2,9=2,10=2/1;
 99/5=1,9=1/99;
 ------------
 binol | No.7
 ------------
 Symbolic Z-matrix:
 Charge =  0 Multiplicity = 1
 C                    -2.98982  -1.88446  -1.35103 
 C                    -1.85035  -1.40905  -0.74028 
 C                    -1.82421  -0.15608  -0.06327 
 C                    -3.02367   0.63284  -0.14116 
 C                    -4.19403   0.10304  -0.74794 
 C                    -4.19098  -1.14066  -1.33203 
 H                    -2.95852  -2.84158  -1.86565 
 H                    -0.94316  -1.99236  -0.80943 
 C                    -0.65283   0.36793   0.61486 
 C                    -3.007     1.97278   0.31949 
 H                    -5.08976   0.72011  -0.76278 
 H                    -5.08779  -1.53483  -1.80194 
 C                    -1.85221   2.51671   0.81305 
 C                    -0.68118   1.72851   0.92873 
 H                    -3.91299   2.56967   0.25139 
 H                    -1.82326   3.55453   1.14169 
 C                     4.191     1.14065  -1.33201 
 C                     4.19403  -0.10305  -0.74792 
 C                     3.02367  -0.63285  -0.14116 
 C                     1.8242    0.15608  -0.06328 
 C                     1.85036   1.40905  -0.7403 
 C                     2.98984   1.88446  -1.35103 
 H                     3.91299  -2.56967   0.25141 
 H                     5.08782   1.53481  -1.80192 
 H                     5.08976  -0.72012  -0.76274 
 C                     3.00699  -1.97278   0.3195 
 C                     0.65281  -0.36793   0.61483 
 H                     0.94318   1.99237  -0.80947 
 H                     2.95856   2.84157  -1.86566 
 C                     0.68117  -1.72851   0.9287 
 C                     1.8522   -2.5167    0.81305 
 H                     1.82326  -3.55452   1.14171 
 O                     0.42048   2.27397   1.53751 
 H                     0.23681   3.20298   1.74416 
 O                    -0.42048  -2.27395   1.53753 
 H                    -0.23679  -3.20295   1.7442 
 
                          Input orientation:                          
 ---------------------------------------------------------------------
 Center     Atomic      Atomic             Coordinates (Angstroms)
 Number     Number       Type             X           Y           Z
 ---------------------------------------------------------------------
      1          6           0       -2.989817   -1.884461   -1.351029
      2          6           0       -1.850348   -1.409049   -0.740283
      3          6           0       -1.824208   -0.156080   -0.063267
      4          6           0       -3.023675    0.632844   -0.141163
      5          6           0       -4.194029    0.103042   -0.747942
      6          6           0       -4.190980   -1.140656   -1.332028
      7          1           0       -2.958524   -2.841583   -1.865649
      8          1           0       -0.943161   -1.992364   -0.809428
      9          6           0       -0.652829    0.367927    0.614857
     10          6           0       -3.007002    1.972776    0.319494
     11          1           0       -5.089759    0.720113   -0.762777
     12          1           0       -5.087792   -1.534830   -1.801943
     13          6           0       -1.852213    2.516707    0.813046
     14          6           0       -0.681181    1.728510    0.928728
     15          1           0       -3.912994    2.569668    0.251390
     16          1           0       -1.823263    3.554529    1.141689
     17          6           0        4.190998    1.140645   -1.332013
     18          6           0        4.194034   -0.103047   -0.747920
     19          6           0        3.023667   -0.632846   -0.141163
     20          6           0        1.824199    0.156079   -0.063283
     21          6           0        1.850360    1.409051   -0.740298
     22          6           0        2.989839    1.884455   -1.351030
     23          1           0        3.912985   -2.569665    0.251409
     24          1           0        5.087818    1.534811   -1.801919
     25          1           0        5.089763   -0.720120   -0.762738
     26          6           0        3.006990   -1.972776    0.319496
     27          6           0        0.652811   -0.367930    0.614833
     28          1           0        0.943179    1.992368   -0.809469
     29          1           0        2.958558    2.841574   -1.865656
     30          6           0        0.681165   -1.728513    0.928703
     31          6           0        1.852200   -2.516705    0.813045
     32          1           0        1.823255   -3.554518    1.141714
     33          8           0        0.420484    2.273967    1.537510
     34          1           0        0.236812    3.202976    1.744157
     35          8           0       -0.420481   -2.273948    1.537530
     36          1           0       -0.236793   -3.202948    1.744199
 ---------------------------------------------------------------------
                    Distance matrix (angstroms):
                    1          2          3          4          5
     1  C    0.000000
     2  C    1.377468   0.000000
     3  C    2.450362   1.424418   0.000000
     4  C    2.793161   2.430014   1.437773   0.000000
     5  C    2.400835   2.789143   2.480318   1.420774   0.000000
     6  C    1.412940   2.429147   2.860202   2.434351   1.374027
     7  H    1.087150   2.132289   3.427416   3.879399   3.383276
     8  H    2.119853   1.080752   2.169087   3.415675   3.868158
     9  C    3.794664   2.535370   1.451401   2.502530   3.803614
    10  C    4.203477   3.727964   2.465266   1.417004   2.458528
    11  H    3.396999   3.876547   3.452659   2.159334   1.087809
    12  H    2.174181   3.409397   3.946508   3.423095   2.142978
    13  C    5.034644   4.221895   2.812916   2.414907   3.707636
    14  C    4.855991   3.741233   2.417073   2.798648   4.218231
    15  H    4.822786   4.590001   3.448440   2.167089   2.676171
    16  H    6.095663   5.308452   3.901351   3.409244   4.593909
    17  C    7.792030   6.583992   6.282827   7.329904   8.469146
    18  C    7.425961   6.183870   6.057293   7.280454   8.390594
    19  C    6.260376   4.971666   4.871885   6.178375   7.280443
    20  C    5.384872   4.050957   3.661737   4.871884   6.057280
    21  C    5.886215   4.651551   4.050982   4.971688   6.183879
    22  C    7.068311   5.886220   5.384902   6.260404   7.425975
    23  H    7.119409   5.962088   6.232158   7.650322   8.594518
    24  H    8.783104   7.611277   7.325171   8.328744   9.450583
    25  H    8.184216   6.974258   6.972116   8.248924   9.320226
    26  C    6.225765   5.003464   5.175651   6.585619   7.569882
    27  C    4.408312   3.030854   2.576882   3.884537   5.056761
    28  H    5.549013   4.402070   3.582049   4.246277   5.473961
    29  H    7.614684   6.516121   5.925317   6.606018   7.740048
    30  C    4.324073   3.048955   3.119847   4.521776   5.471129
    31  C    5.341168   4.165164   4.456058   5.882544   6.771753
    32  H    5.671730   4.651915   5.128874   6.532419   7.290833
    33  O    6.104616   4.889747   3.675086   4.168148   5.588375
    34  H    6.772985   5.639100   4.335648   4.559691   5.954200
    35  O    3.885481   2.825067   3.003059   4.247831   5.011300
    36  H    4.347181   3.463277   3.882039   5.102411   5.727133
                    6          7          8          9         10
     6  C    0.000000
     7  H    2.167222   0.000000
     8  H    3.398065   2.428675   0.000000
     9  C    4.310997   4.665843   2.771977   0.000000
    10  C    3.717901   5.287273   4.610449   2.864421   0.000000
    11  H    2.143435   4.294667   4.955198   4.659212   2.660517
    12  H    1.086492   2.499089   4.286303   5.397250   4.597117
    13  C    4.842260   6.091847   4.877553   2.468817   1.368573
    14  C    5.065750   5.820703   4.115182   1.396605   2.416666
    15  H    4.043636   5.888506   5.545934   3.950753   1.087079
    16  H    5.811207   7.158432   5.945541   3.435389   2.139903
    17  C    8.686880   8.201132   6.037253   5.277315   7.431764
    18  C    8.469137   7.740025   5.473945   5.056783   7.569897
    19  C    7.329881   6.605981   4.246244   3.884551   6.585624
    20  C    6.282803   5.925280   3.582014   2.576901   5.175655
    21  C    6.583991   6.516108   4.402063   3.030897   5.003490
    22  C    7.792036   7.614676   5.549013   4.408356   6.225797
    23  H    8.379952   7.195381   5.004079   5.441342   8.277960
    24  H    9.668248   9.159722   7.056820   6.336991   8.379637
    25  H    9.307692   8.395948   6.165789   6.004913   8.601193
    26  C    7.431738   6.412257   4.108351   4.354355   7.192738
    27  C    5.277280   5.031251   2.685969   1.498727   4.354350
    28  H    6.037259   6.301261   4.408670   2.686030   4.108390
    29  H    8.201147   8.204275   6.301269   5.031301   6.412300
    30  C    5.403173   4.721723   2.393565   2.504616   5.260537
    31  C    6.558573   5.515797   3.274354   3.825644   6.634069
    32  H    6.936653   5.693674   3.728316   4.668420   7.386366
    33  O    6.415567   7.011992   5.056602   2.374085   3.649923
    34  H    6.923539   7.731595   5.908019   3.178723   3.750385
    35  O    4.871897   4.283165   2.420887   2.807991   5.119411
    36  H    5.417732   4.535351   2.912985   3.768242   6.040858
                   11         12         13         14         15
    11  H    0.000000
    12  H    2.482869   0.000000
    13  C    4.024012   5.807072   0.000000
    14  C    4.828417   6.125698   1.416317   0.000000
    15  H    2.415401   4.737429   2.136605   3.407484   0.000000
    16  H    4.725558   6.724856   1.088999   2.164266   2.475795
    17  C    9.307703   9.668244   6.558599   5.403209   8.379974
    18  C    9.320227   9.450569   6.771767   5.471149   8.594529
    19  C    8.248914   8.328717   5.882551   4.521788   7.650324
    20  C    6.972105   7.325144   4.456066   3.119864   6.232160
    21  C    6.974266   7.611273   4.165192   3.049000   5.962108
    22  C    8.184231   8.783106   5.341202   4.324119   7.119436
    23  H    9.638496   9.289840   7.708704   6.327672   9.362622
    24  H   10.262876  10.628534   7.481056   6.385554   9.289867
    25  H   10.280902  10.262861   7.819922   6.493123   9.638506
    26  C    8.601181   8.379606   6.634071   5.260541   8.277960
    27  C    6.004894   6.336954   3.825646   2.504621   5.441337
    28  H    6.165805   7.056822   3.274401   2.393636   5.004110
    29  H    8.395972   9.159734   5.515841   4.721779   7.195418
    30  C    6.493107   6.385515   4.945025   3.715776   6.327670
    31  C    7.819911   7.481025   6.249633   4.945023   7.708703
    32  H    8.348013   7.778613   7.104707   5.850466   8.438180
    33  O    6.169972   7.483314   2.397691   1.371789   4.529964
    34  H    6.389185   7.960718   2.387877   1.918772   4.455370
    35  O    6.004829   5.786378   5.052238   4.056880   6.108389
    36  H    6.725074   6.236179   6.015902   5.018142   7.004715
                   16         17         18         19         20
    16  H    0.000000
    17  C    6.936669   0.000000
    18  C    7.290840   1.374025   0.000000
    19  C    6.532423   2.434349   1.420774   0.000000
    20  C    5.128879   2.860207   2.480321   1.437773   0.000000
    21  C    4.651930   2.429147   2.789141   2.430011   1.424420
    22  C    5.671750   1.412939   2.400831   2.793157   2.450366
    23  H    8.438181   4.043627   2.676164   2.167087   3.448440
    24  H    7.778633   1.086492   2.142975   3.423093   3.946513
    25  H    8.348017   2.143432   1.087809   2.159334   3.452661
    26  C    7.386369   3.717896   2.458523   1.417003   2.465266
    27  C    4.668426   4.311006   3.803619   2.502532   1.451405
    28  H    3.728346   3.398060   3.868153   3.415671   2.169089
    29  H    5.693702   2.167220   3.383272   3.879396   3.427419
    30  C    5.850475   5.065751   4.218229   2.798645   2.417075
    31  C    7.104711   4.842258   3.707633   2.414906   2.812918
    32  H    7.989721   5.811204   4.593905   3.409242   3.901352
    33  O    2.613602   4.871895   5.011294   4.247831   3.003066
    34  H    2.174963   5.417713   5.727115   5.102404   3.882038
    35  O    6.007964   6.415564   5.588367   4.168139   3.675081
    36  H    6.967309   6.923526   5.954181   4.559673   4.335636
                   21         22         23         24         25
    21  C    0.000000
    22  C    1.377467   0.000000
    23  H    4.589998   4.822779   0.000000
    24  H    3.409397   2.174182   4.737416   0.000000
    25  H    3.876545   3.396996   2.415392   2.482864   0.000000
    26  C    3.727963   4.203473   1.087078   4.597109   2.660511
    27  C    2.535383   3.794675   3.950753   5.397259   4.659215
    28  H    1.080750   2.119847   5.545931   4.286298   4.955193
    29  H    2.132289   1.087150   5.888497   2.499088   4.294663
    30  C    3.741242   4.855996   3.407481   6.125698   4.828412
    31  C    4.221900   5.034645   2.136604   5.807068   4.024006
    32  H    5.308458   6.095664   2.475793   6.724851   4.725550
    33  O    2.825072   3.885482   6.108387   5.786376   6.004820
    34  H    3.463267   4.347164   7.004708   6.236160   6.725053
    35  O    4.889755   6.104619   4.529954   7.483310   6.169960
    36  H    5.639102   6.772981   4.455348   7.960703   6.389160
                   26         27         28         29         30
    26  C    0.000000
    27  C    2.864422   0.000000
    28  H    4.610450   2.771995   0.000000
    29  H    5.287268   4.665856   2.428669   0.000000
    30  C    2.416663   1.396605   4.115197   5.820709   0.000000
    31  C    1.368572   2.468817   4.877562   6.091849   1.416314
    32  H    2.139902   3.435387   5.945552   7.158434   2.164264
    33  O    5.119414   2.808011   2.420913   4.283169   4.056901
    34  H    6.040857   3.768262   2.912994   4.535335   5.018167
    35  O    3.649914   2.374075   5.056622   7.012000   1.371785
    36  H    3.750364   3.178709   5.908034   7.731595   1.918760
                   31         32         33         34         35
    31  C    0.000000
    32  H    1.088998   0.000000
    33  O    5.052247   6.007966   0.000000
    34  H    6.015912   6.967314   0.969276   0.000000
    35  O    2.397684   2.613595   4.625014   5.520093   0.000000
    36  H    2.387859   2.174945   5.520084   6.423408   0.969275
                   36
    36  H    0.000000
 Stoichiometry    C20H14O2
 Framework group  C1[X(C20H14O2)]
 Deg. of freedom   102
 Full point group                 C1      NOp   1
 Largest Abelian subgroup         C1      NOp   1
 Largest concise Abelian subgroup C1      NOp   1
                         Standard orientation:                         
 ---------------------------------------------------------------------
 Center     Atomic      Atomic             Coordinates (Angstroms)
 Number     Number       Type             X           Y           Z
 ---------------------------------------------------------------------
      1          6           0        2.989817   -1.884461    1.351029
      2          6           0        1.850348   -1.409049    0.740283
      3          6           0        1.824208   -0.156080    0.063267
      4          6           0        3.023675    0.632844    0.141163
      5          6           0        4.194029    0.103042    0.747942
      6          6           0        4.190980   -1.140656    1.332028
      7          1           0        2.958524   -2.841583    1.865649
      8          1           0        0.943161   -1.992364    0.809428
      9          6           0        0.652829    0.367927   -0.614857
     10          6           0        3.007002    1.972776   -0.319494
     11          1           0        5.089759    0.720113    0.762777
     12          1           0        5.087792   -1.534830    1.801943
     13          6           0        1.852213    2.516707   -0.813046
     14          6           0        0.681181    1.728510   -0.928728
     15          1           0        3.912994    2.569668   -0.251390
     16          1           0        1.823263    3.554529   -1.141689
     17          6           0       -4.190998    1.140645    1.332013
     18          6           0       -4.194034   -0.103047    0.747920
     19          6           0       -3.023667   -0.632846    0.141163
     20          6           0       -1.824199    0.156079    0.063283
     21          6           0       -1.850360    1.409051    0.740298
     22          6           0       -2.989839    1.884455    1.351030
     23          1           0       -3.912985   -2.569665   -0.251409
     24          1           0       -5.087818    1.534811    1.801919
     25          1           0       -5.089763   -0.720120    0.762738
     26          6           0       -3.006990   -1.972776   -0.319496
     27          6           0       -0.652811   -0.367930   -0.614833
     28          1           0       -0.943179    1.992368    0.809469
     29          1           0       -2.958558    2.841574    1.865656
     30          6           0       -0.681165   -1.728513   -0.928703
     31          6           0       -1.852200   -2.516705   -0.813045
     32          1           0       -1.823255   -3.554518   -1.141714
     33          8           0       -0.420484    2.273967   -1.537510
     34          1           0       -0.236812    3.202976   -1.744157
     35          8           0        0.420481   -2.273948   -1.537530
     36          1           0        0.236793   -3.202948   -1.744199
 ---------------------------------------------------------------------
 Rotational constants (GHZ):           0.4993890           0.2307973           0.1887548
 Standard basis: 6-31G(d) (6D, 7F)
 There are   358 symmetry adapted cartesian basis functions of A   symmetry.
 There are   358 symmetry adapted basis functions of A   symmetry.
   358 basis functions,   672 primitive gaussians,   358 cartesian basis functions
    75 alpha electrons       75 beta electrons
       nuclear repulsion energy      1676.4613949372 Hartrees.
 NAtoms=   36 NActive=   36 NUniq=   36 SFac= 1.00D+00 NAtFMM=   60 NAOKFM=F Big=F
 Integral buffers will be    131072 words long.
 Regular integral format.
 Two-electron integral symmetry is turned on.
 One-electron integrals computed using PRISM.
 NBasis=   358 RedAO= T EigKep=  2.68D-04  NBF=   358
 NBsUse=   358 1.00D-06 EigRej= -1.00D+00 NBFU=   358
 ExpMin= 1.61D-01 ExpMax= 5.48D+03 ExpMxC= 8.25D+02 IAcc=3 IRadAn=         5 AccDes= 0.00D+00
 Harris functional with IExCor=  402 and IRadAn=       5 diagonalized for initial guess.
 HarFok:  IExCor=  402 AccDes= 0.00D+00 IRadAn=         5 IDoV= 1 UseB2=F ITyADJ=14
 ICtDFT=  3500011 ScaDFX=  1.000000  1.000000  1.000000  1.000000
 FoFCou: FMM=F IPFlag=           0 FMFlag=      100000 FMFlg1=           0
         NFxFlg=           0 DoJE=T BraDBF=F KetDBF=T FulRan=T
         wScrn=  0.000000 ICntrl=       500 IOpCl=  0 I1Cent=   200000004 NGrid=           0
         NMat0=    1 NMatS0=      1 NMatT0=    0 NMatD0=    1 NMtDS0=    0 NMtDT0=    0
 Petite list used in FoFCou.
 Requested convergence on RMS density matrix=1.00D-08 within 128 cycles.
 Requested convergence on MAX density matrix=1.00D-06.
 Requested convergence on             energy=1.00D-06.
 No special actions if energy rises.
 Integral accuracy reduced to 1.0D-05 until final iterations.
 EnCoef did     5 forward-backward iterations
 Initial convergence to 1.0D-05 achieved.  Increase integral accuracy.
 SCF Done:  E(RB3LYP) =  -920.997499487     A.U. after   14 cycles
            NFock= 14  Conv=0.67D-08     -V/T= 2.0095
 DoSCS=F DFT=T ScalE2(SS,OS)=  1.000000  1.000000
 ExpMin= 1.61D-01 ExpMax= 5.48D+03 ExpMxC= 8.25D+02 IAcc=3 IRadAn=         5 AccDes= 0.00D+00
 HarFok:  IExCor=  205 AccDes= 0.00D+00 IRadAn=         5 IDoV=-2 UseB2=F ITyADJ=14
 ICtDFT= 12500011 ScaDFX=  1.000000  1.000000  1.000000  1.000000
 GSVD:  LWork=        -660 too small for GESVD, short by        2750 words or        2750 for optimal perf.
 Range of M.O.s used for correlation:    23   358
 NBasis=   358 NAE=    75 NBE=    75 NFC=    22 NFV=     0
 NROrb=    336 NOA=    53 NOB=    53 NVA=   283 NVB=   283
 Orbital symmetries:
       Occupied  (A) (A) (A) (A) (A) (A) (A) (A) (A) (A) (A) (A)
                 (A) (A) (A) (A) (A) (A) (A) (A) (A) (A) (A) (A)
                 (A) (A) (A) (A) (A) (A) (A) (A) (A) (A) (A) (A)
                 (A) (A) (A) (A) (A) (A) (A) (A) (A) (A) (A) (A)
                 (A) (A) (A) (A) (A) (A) (A) (A) (A) (A) (A) (A)
                 (A) (A) (A) (A) (A) (A) (A) (A) (A) (A) (A) (A)
                 (A) (A) (A)
       Virtual   (A) (A) (A) (A) (A) (A) (A) (A) (A) (A) (A) (A)
                 (A) (A) (A) (A) (A) (A) (A) (A) (A) (A) (A) (A)
                 (A) (A) (A) (A) (A) (A) (A) (A) (A) (A) (A) (A)
                 (A) (A) (A) (A) (A) (A) (A) (A) (A) (A) (A) (A)
                 (A) (A) (A) (A) (A) (A) (A) (A) (A) (A) (A) (A)
                 (A) (A) (A) (A) (A) (A) (A) (A) (A) (A) (A) (A)
                 (A) (A) (A) (A) (A) (A) (A) (A) (A) (A) (A) (A)
                 (A) (A) (A) (A) (A) (A) (A) (A) (A) (A) (A) (A)
                 (A) (A) (A) (A) (A) (A) (A) (A) (A) (A) (A) (A)
                 (A) (A) (A) (A) (A) (A) (A) (A) (A) (A) (A) (A)
                 (A) (A) (A) (A) (A) (A) (A) (A) (A) (A) (A) (A)
                 (A) (A) (A) (A) (A) (A) (A) (A) (A) (A) (A) (A)
                 (A) (A) (A) (A) (A) (A) (A) (A) (A) (A) (A) (A)
                 (A) (A) (A) (A) (A) (A) (A) (A) (A) (A) (A) (A)
                 (A) (A) (A) (A) (A) (A) (A) (A) (A) (A) (A) (A)
                 (A) (A) (A) (A) (A) (A) (A) (A) (A) (A) (A) (A)
                 (A) (A) (A) (A) (A) (A) (A) (A) (A) (A) (A) (A)
                 (A) (A) (A) (A) (A) (A) (A) (A) (A) (A) (A) (A)
                 (A) (A) (A) (A) (A) (A) (A) (A) (A) (A) (A) (A)
                 (A) (A) (A) (A) (A) (A) (A) (A) (A) (A) (A) (A)
                 (A) (A) (A) (A) (A) (A) (A) (A) (A) (A) (A) (A)
                 (A) (A) (A) (A) (A) (A) (A) (A) (A) (A) (A) (A)
                 (A) (A) (A) (A) (A) (A) (A) (A) (A) (A) (A) (A)
                 (A) (A) (A) (A) (A) (A) (A)
    64 initial guesses have been made.
 Convergence on wavefunction:    0.001000000000000
 Iteration     1 Dimension    64 NMult     0 NNew     64
 CISAX will form    64 AO SS matrices at one time.
 New state      3 was old state      5
 New state      5 was old state      6
 New state      6 was old state      3
 New state      7 was old state      8
 New state      8 was old state     13
 New state      9 was old state     11
 New state     10 was old state     12
 New state     11 was old state     10
 New state     12 was old state     14
 New state     13 was old state     19
 New state     14 was old state     16
 New state     16 was old state     20
 Iteration     2 Dimension    96 NMult    64 NNew     32
 New state      5 was old state      6
 New state      6 was old state      5
 New state     16 was old state     17
 Iteration     3 Dimension   128 NMult    96 NNew     32
 Iteration     4 Dimension   160 NMult   128 NNew     32
 Iteration     5 Dimension   178 NMult   160 NNew     18
 Iteration     6 Dimension   182 NMult   178 NNew      4
 ***********************************************************************
 Excited states from <AA,BB:AA,BB> singles matrix:
 ***********************************************************************
 
 Ground to excited state transition densities written to RWF  633
 Ground to excited state transition electric dipole moments (Au):
       state          X           Y           Z        Dip. S.      Osc.
         1        -1.3991     -0.6525      0.0000      2.3834      0.2042
         2         0.0000      0.0000     -0.1356      0.0184      0.0017
         3        -0.0000     -0.0000     -0.1359      0.0185      0.0018
         4         0.2814     -0.2791      0.0000      0.1571      0.0161
         5         0.0000      0.0000     -0.0895      0.0080      0.0009
         6        -0.6402     -0.1483     -0.0000      0.4318      0.0473
         7        -0.0000      0.0001      0.4066      0.1653      0.0192
         8         0.4094     -0.7650      0.0000      0.7529      0.0886
         9        -0.0000     -0.0000      0.0981      0.0096      0.0012
        10         0.2175      0.0232      0.0000      0.0479      0.0058
        11         0.1260      0.0129     -0.0000      0.0160      0.0020
        12        -1.0723      0.0358      0.0000      1.1511      0.1509
        13        -0.0000      0.0000      0.8763      0.7679      0.1045
        14         0.0001     -0.0002     -0.5554      0.3085      0.0428
        15        -0.2347      0.7265     -0.0002      0.5829      0.0811
        16        -0.0001      0.0001     -0.1337      0.0179      0.0025
 Ground to excited state transition velocity dipole moments (Au):
       state          X           Y           Z        Dip. S.      Osc.
         1         0.1913      0.0852     -0.0000      0.0439      0.2275
         2        -0.0000     -0.0000      0.0212      0.0005      0.0022
         3         0.0000     -0.0000      0.0139      0.0002      0.0009
         4        -0.0380      0.0410      0.0000      0.0031      0.0135
         5         0.0000     -0.0000      0.0124      0.0002      0.0006
         6         0.1146      0.0275     -0.0000      0.0139      0.0564
         7         0.0000     -0.0000     -0.0738      0.0055      0.0209
         8        -0.0631      0.1338     -0.0000      0.0219      0.0826
         9         0.0000      0.0000     -0.0181      0.0003      0.0012
        10        -0.0446     -0.0051     -0.0000      0.0020      0.0074
        11        -0.0271      0.0101      0.0000      0.0008      0.0030
        12         0.2047     -0.0072     -0.0000      0.0419      0.1422
        13         0.0000     -0.0000     -0.1771      0.0314      0.1025
        14        -0.0000      0.0000      0.1171      0.0137      0.0439
        15         0.0454     -0.1473      0.0000      0.0237      0.0758
        16         0.0000     -0.0000      0.0286      0.0008      0.0026
 Ground to excited state transition magnetic dipole moments (Au):
       state          X           Y           Z
         1         0.1981     -0.1452     -0.0000
         2        -0.0000      0.0000     -0.7831
         3         0.0000     -0.0000     -0.6506
         4        -0.1782      0.3107     -0.0000
         5         0.0000     -0.0000     -0.1262
         6        -0.1431     -0.0070      0.0000
         7         0.0000     -0.0000      1.0934
         8        -0.1921      0.4642      0.0001
         9         0.0000     -0.0000      0.2878
        10        -0.1249     -0.0148      0.0000
        11        -0.0653      0.1325     -0.0000
        12         0.3965     -0.8483      0.0000
        13        -0.0000     -0.0000      1.8191
        14        -0.0000      0.0001     -1.1175
        15         0.1323     -0.3955     -0.0003
        16         0.0000     -0.0000     -0.1311
 Ground to excited state transition velocity quadrupole moments (Au):
       state          XX          YY          ZZ          XY          XZ          YZ
         1        -0.0000      0.0000     -0.0000     -0.0000      0.1648     -0.2179
         2        -0.1325     -0.1373      0.0111     -0.2063     -0.0000      0.0000
         3        -0.5745     -0.1565      0.0144     -0.4570      0.0000      0.0000
         4        -0.0000      0.0000      0.0000     -0.0000     -0.1322      0.0099
         5         0.7437     -0.0573     -0.0071      0.1602      0.0000      0.0000
         6         0.0000      0.0000     -0.0000      0.0000      0.1335      0.0153
         7        -0.4297      0.2002      0.0017      0.3619      0.0000     -0.0000
         8        -0.0000      0.0000     -0.0000      0.0000     -0.2670     -0.0407
         9        -0.1064      0.1064      0.0032      0.1243      0.0000     -0.0000
        10        -0.0000      0.0000      0.0000      0.0000     -0.0995      0.0268
        11        -0.0000     -0.0000      0.0000     -0.0000      0.0012      0.1125
        12         0.0000      0.0000     -0.0000      0.0000      0.3038     -0.4117
        13        -1.7337      0.4780     -0.0480      0.9552      0.0000      0.0000
        14         1.3389     -0.2176      0.0524     -0.4813     -0.0001     -0.0000
        15         0.0004     -0.0001      0.0000     -0.0002      0.3783      0.0065
        16         0.0260     -0.2652     -0.0190     -0.3756      0.0001      0.0000
 <0|del|b> * <b|rxdel|0> + <0|del|b> * <b|delr+rdel|0>
 Rotatory Strengths (R) in cgs (10**-40 erg-esu-cm/Gauss)
       state          XX          YY          ZZ    R(velocity)    E-M Angle
         1       -72.6859    -10.3749    223.5758     46.8383       60.25
         2       -53.4330    -31.1520      0.0000    -28.1950       90.00
         3       -36.3394     -6.3525      0.0000    -14.2306       90.00
         4        41.7366     14.6904     33.2498     29.8923       12.99
         5         0.9326     -7.8643      0.0000     -2.3106       90.00
         6        -8.3053    -31.5628    -31.6430    -23.8370      169.34
         7      -218.1318   -109.6406      0.0000   -109.2575       90.00
         8       195.8234     29.3867     71.9095     99.0399        2.77
         9       -14.5727     -5.7797      0.0000     -6.7841       90.00
        10        -0.8335      8.4690     14.2100      7.2818       90.00
        11         2.5454     -2.4376     11.7892      3.9657       43.22
        12        14.9414     -5.6112    304.6010    104.6438       62.93
        13      -851.6057   -265.1695     -0.0000   -372.2584       90.00
        14      -318.2328   -126.6270     -0.0000   -148.2866       90.00
        15       192.9910     10.6614     13.9485     72.5336        1.38
        16       -24.3625     11.7587     -0.0000     -4.2013       90.00
 1/2[<0|r|b>*<b|rxdel|0> + (<0|rxdel|b>*<b|r|0>)*]
 Rotatory Strengths (R) in cgs (10**-40 erg-esu-cm/Gauss)
       state          XX          YY          ZZ     R(length)
         1       196.0526    -67.0199      0.0000     43.0109
         2         0.0000     -0.0000    -75.0741    -25.0247
         3         0.0000     -0.0000    -62.5284    -20.8428
         4        35.4493     61.3283      0.0000     32.2592
         5        -0.0000      0.0000     -7.9842     -2.6614
         6       -64.7972     -0.7351      0.0000    -21.8441
         7         0.0000      0.0000   -314.3672   -104.7891
         8        55.6083    251.1187     -0.0000    102.2423
         9         0.0000     -0.0000    -19.9631     -6.6544
        10        19.2181      0.2421     -0.0000      6.4867
        11         5.8230     -1.2065     -0.0000      1.5389
        12       300.6610     21.4537     -0.0000    107.3715
        13        -0.0000      0.0000  -1127.2277   -375.7426
        14         0.0000      0.0000   -438.9081   -146.3027
        15        21.9654    203.1823     -0.0000     75.0492
        16         0.0000      0.0000    -12.3939     -4.1313
  1/2[<0|del|b>*<b|r|0> + (<0|r|b>*<b|del|0>)*] (Au)
       state          X           Y           Z        Dip. S.   Osc.(frdel)
         1        -0.2677     -0.0556     -0.0000      0.3232      0.2155
         2        -0.0000     -0.0000     -0.0029      0.0029      0.0019
         3        -0.0000      0.0000     -0.0019      0.0019      0.0013
         4        -0.0107     -0.0115      0.0000      0.0221      0.0148
         5         0.0000     -0.0000     -0.0011      0.0011      0.0007
         6        -0.0734     -0.0041      0.0000      0.0775      0.0516
         7        -0.0000     -0.0000     -0.0300      0.0300      0.0200
         8        -0.0258     -0.1023     -0.0000      0.1281      0.0854
         9        -0.0000     -0.0000     -0.0018      0.0018      0.0012
        10        -0.0097     -0.0001     -0.0000      0.0098      0.0066
        11        -0.0034      0.0001     -0.0000      0.0033      0.0022
        12        -0.2195     -0.0003     -0.0000      0.2197      0.1465
        13        -0.0000     -0.0000     -0.1552      0.1552      0.1035
        14        -0.0000     -0.0000     -0.0650      0.0650      0.0433
        15        -0.0106     -0.1070     -0.0000      0.1176      0.0784
        16        -0.0000     -0.0000     -0.0038      0.0038      0.0025

 Excitation energies and oscillator strengths:
 
 Excited State   1:      Singlet-A      3.4966 eV  354.58 nm  f=0.2042  <S**2>=0.000
      75 -> 76         0.69712
 This state for optimization and/or second-order correction.
 Total Energy, E(TD-HF/TD-DFT) =  -920.869000571    
 Copying the excited state density for this state as the 1-particle RhoCI density.
 
 Excited State   2:      Singlet-A      3.7802 eV  327.99 nm  f=0.0017  <S**2>=0.000
      74 -> 76         0.64792
      75 -> 77        -0.25562
 
 Excited State   3:      Singlet-A      4.0742 eV  304.31 nm  f=0.0018  <S**2>=0.000
      72 -> 76         0.19790
      74 -> 76         0.19502
      75 -> 77         0.60945
      75 -> 79         0.15293
 
 Excited State   4:      Singlet-A      4.1895 eV  295.94 nm  f=0.0161  <S**2>=0.000
      73 -> 76         0.52340
      74 -> 77         0.20041
      74 -> 79         0.12309
      75 -> 78        -0.38960
 
 Excited State   5:      Singlet-A      4.3488 eV  285.10 nm  f=0.0009  <S**2>=0.000
      72 -> 76         0.54134
      74 -> 76        -0.16110
      74 -> 78        -0.16086
      75 -> 77        -0.21108
      75 -> 79         0.31603
 
 Excited State   6:      Singlet-A      4.4673 eV  277.54 nm  f=0.0473  <S**2>=0.000
      73 -> 76        -0.30539
      74 -> 77         0.61170
 
 Excited State   7:      Singlet-A      4.7404 eV  261.55 nm  f=0.0192  <S**2>=0.000
      72 -> 76        -0.33426
      73 -> 77         0.39824
      75 -> 79         0.46385
 
 Excited State   8:      Singlet-A      4.8054 eV  258.01 nm  f=0.0886  <S**2>=0.000
      72 -> 77        -0.27211
      73 -> 76         0.26846
      74 -> 77         0.21500
      74 -> 79         0.22685
      75 -> 78         0.48476
 
 Excited State   9:      Singlet-A      4.9207 eV  251.97 nm  f=0.0012  <S**2>=0.000
      73 -> 77        -0.35615
      74 -> 78         0.52796
      75 -> 79         0.27265
 
 Excited State  10:      Singlet-A      4.9787 eV  249.03 nm  f=0.0058  <S**2>=0.000
      71 -> 76         0.47743
      72 -> 77         0.28587
      74 -> 77        -0.10490
      74 -> 79         0.36576
      75 -> 78         0.14636
      75 -> 80         0.10754
 
 Excited State  11:      Singlet-A      5.0384 eV  246.08 nm  f=0.0020  <S**2>=0.000
      71 -> 76         0.44883
      72 -> 77        -0.40289
      74 -> 79        -0.29450
      75 -> 80         0.18883
 
 Excited State  12:      Singlet-A      5.3494 eV  231.77 nm  f=0.1509  <S**2>=0.000
      71 -> 76        -0.20527
      74 -> 79         0.16030
      75 -> 80         0.63872
 
 Excited State  13:      Singlet-A      5.5524 eV  223.30 nm  f=0.1045  <S**2>=0.000
      70 -> 76        -0.21044
      71 -> 77         0.33981
      72 -> 76        -0.12203
      73 -> 77        -0.30727
      73 -> 79        -0.13465
      74 -> 78        -0.26610
      74 -> 80         0.19098
      75 -> 79         0.15951
      75 -> 81         0.24409
 
 Excited State  14:      Singlet-A      5.6584 eV  219.12 nm  f=0.0428  <S**2>=0.000
      71 -> 77         0.35761
      71 -> 79         0.10201
      72 -> 78         0.45051
      73 -> 77         0.10602
      74 -> 78         0.21399
      74 -> 80        -0.11983
      75 -> 79        -0.12383
      75 -> 81         0.21783
 
 Excited State  15:      Singlet-A      5.6817 eV  218.22 nm  f=0.0811  <S**2>=0.000
      72 -> 77        -0.12473
      72 -> 79         0.36601
      73 -> 78         0.56173
      74 -> 79         0.11255
 
 Excited State  16:      Singlet-A      5.7219 eV  216.68 nm  f=0.0025  <S**2>=0.000
      70 -> 76        -0.23752
      71 -> 79        -0.10738
      73 -> 79         0.49705
      74 -> 80         0.38033
 SavETr:  write IOETrn=   770 NScale= 10 NData=  16 NLR=1 NState=   16 LETran=     298.

 **********************************************************************

            Population analysis using the SCF Density.

 **********************************************************************

 Orbital symmetries:
       Occupied  (A) (A) (A) (A) (A) (A) (A) (A) (A) (A) (A) (A)
                 (A) (A) (A) (A) (A) (A) (A) (A) (A) (A) (A) (A)
                 (A) (A) (A) (A) (A) (A) (A) (A) (A) (A) (A) (A)
                 (A) (A) (A) (A) (A) (A) (A) (A) (A) (A) (A) (A)
                 (A) (A) (A) (A) (A) (A) (A) (A) (A) (A) (A) (A)
                 (A) (A) (A) (A) (A) (A) (A) (A) (A) (A) (A) (A)
                 (A) (A) (A)
       Virtual   (A) (A) (A) (A) (A) (A) (A) (A) (A) (A) (A) (A)
                 (A) (A) (A) (A) (A) (A) (A) (A) (A) (A) (A) (A)
                 (A) (A) (A) (A) (A) (A) (A) (A) (A) (A) (A) (A)
                 (A) (A) (A) (A) (A) (A) (A) (A) (A) (A) (A) (A)
                 (A) (A) (A) (A) (A) (A) (A) (A) (A) (A) (A) (A)
                 (A) (A) (A) (A) (A) (A) (A) (A) (A) (A) (A) (A)
                 (A) (A) (A) (A) (A) (A) (A) (A) (A) (A) (A) (A)
                 (A) (A) (A) (A) (A) (A) (A) (A) (A) (A) (A) (A)
                 (A) (A) (A) (A) (A) (A) (A) (A) (A) (A) (A) (A)
                 (A) (A) (A) (A) (A) (A) (A) (A) (A) (A) (A) (A)
                 (A) (A) (A) (A) (A) (A) (A) (A) (A) (A) (A) (A)
                 (A) (A) (A) (A) (A) (A) (A) (A) (A) (A) (A) (A)
                 (A) (A) (A) (A) (A) (A) (A) (A) (A) (A) (A) (A)
                 (A) (A) (A) (A) (A) (A) (A) (A) (A) (A) (A) (A)
                 (A) (A) (A) (A) (A) (A) (A) (A) (A) (A) (A) (A)
                 (A) (A) (A) (A) (A) (A) (A) (A) (A) (A) (A) (A)
                 (A) (A) (A) (A) (A) (A) (A) (A) (A) (A) (A) (A)
                 (A) (A) (A) (A) (A) (A) (A) (A) (A) (A) (A) (A)
                 (A) (A) (A) (A) (A) (A) (A) (A) (A) (A) (A) (A)
                 (A) (A) (A) (A) (A) (A) (A) (A) (A) (A) (A) (A)
                 (A) (A) (A) (A) (A) (A) (A) (A) (A) (A) (A) (A)
                 (A) (A) (A) (A) (A) (A) (A) (A) (A) (A) (A) (A)
                 (A) (A) (A) (A) (A) (A) (A) (A) (A) (A) (A) (A)
                 (A) (A) (A) (A) (A) (A) (A)
 The electronic state is 1-A.
 Alpha  occ. eigenvalues --  -19.17436 -19.17436 -10.24746 -10.24746 -10.19516
 Alpha  occ. eigenvalues --  -10.19516 -10.19371 -10.19344 -10.19218 -10.19218
 Alpha  occ. eigenvalues --  -10.19143 -10.19143 -10.18868 -10.18868 -10.18218
 Alpha  occ. eigenvalues --  -10.18218 -10.18053 -10.18053 -10.17961 -10.17961
 Alpha  occ. eigenvalues --  -10.17584 -10.17584  -1.05708  -1.05608  -0.86884
 Alpha  occ. eigenvalues --   -0.85929  -0.81387  -0.80899  -0.78696  -0.75046
 Alpha  occ. eigenvalues --   -0.72967  -0.72934  -0.71858  -0.70490  -0.63057
 Alpha  occ. eigenvalues --   -0.62658  -0.60995  -0.60990  -0.59655  -0.56705
 Alpha  occ. eigenvalues --   -0.54722  -0.54469  -0.51705  -0.50184  -0.48891
 Alpha  occ. eigenvalues --   -0.48869  -0.46351  -0.46323  -0.44438  -0.43349
 Alpha  occ. eigenvalues --   -0.42647  -0.42112  -0.41646  -0.41444  -0.41414
 Alpha  occ. eigenvalues --   -0.39701  -0.39182  -0.38987  -0.38680  -0.36710
 Alpha  occ. eigenvalues --   -0.36105  -0.35805  -0.35083  -0.34003  -0.33753
 Alpha  occ. eigenvalues --   -0.33071  -0.31422  -0.30437  -0.29834  -0.28467
 Alpha  occ. eigenvalues --   -0.25364  -0.22766  -0.22498  -0.20617  -0.18949
 Alpha virt. eigenvalues --   -0.04411  -0.02028   0.00239   0.00541   0.03087
 Alpha virt. eigenvalues --    0.05014   0.06967   0.07033   0.09904   0.10129
 Alpha virt. eigenvalues --    0.10793   0.11414   0.11943   0.12106   0.14375
 Alpha virt. eigenvalues --    0.15427   0.17497   0.17529   0.18708   0.18823
 Alpha virt. eigenvalues --    0.19840   0.20144   0.20553   0.21657   0.23161
 Alpha virt. eigenvalues --    0.24437   0.25949   0.27416   0.27658   0.29541
 Alpha virt. eigenvalues --    0.30625   0.31598   0.32265   0.32766   0.33669
 Alpha virt. eigenvalues --    0.34816   0.36385   0.36959   0.37162   0.39627
 Alpha virt. eigenvalues --    0.40755   0.48617   0.49048   0.50203   0.50580
 Alpha virt. eigenvalues --    0.50672   0.51585   0.52606   0.52676   0.53454
 Alpha virt. eigenvalues --    0.54029   0.54604   0.55593   0.55950   0.55967
 Alpha virt. eigenvalues --    0.56127   0.56795   0.57133   0.57464   0.59401
 Alpha virt. eigenvalues --    0.59576   0.60329   0.60591   0.60701   0.60807
 Alpha virt. eigenvalues --    0.61500   0.61995   0.62552   0.62790   0.62891
 Alpha virt. eigenvalues --    0.63097   0.63461   0.63967   0.64791   0.64824
 Alpha virt. eigenvalues --    0.66030   0.67094   0.67471   0.67752   0.68709
 Alpha virt. eigenvalues --    0.70786   0.71917   0.73852   0.75583   0.77710
 Alpha virt. eigenvalues --    0.79092   0.79506   0.82049   0.82216   0.83909
 Alpha virt. eigenvalues --    0.84129   0.84325   0.84696   0.84985   0.86090
 Alpha virt. eigenvalues --    0.86545   0.87596   0.88541   0.89399   0.89406
 Alpha virt. eigenvalues --    0.90120   0.90587   0.90795   0.91606   0.93508
 Alpha virt. eigenvalues --    0.94123   0.94924   0.95407   0.95805   0.98496
 Alpha virt. eigenvalues --    0.98816   1.00048   1.01590   1.02437   1.02510
 Alpha virt. eigenvalues --    1.03591   1.06031   1.06432   1.06982   1.08658
 Alpha virt. eigenvalues --    1.09043   1.10704   1.12041   1.13873   1.14107
 Alpha virt. eigenvalues --    1.16541   1.17320   1.18311   1.21734   1.22878
 Alpha virt. eigenvalues --    1.23983   1.25997   1.26309   1.28735   1.29271
 Alpha virt. eigenvalues --    1.29897   1.31352   1.31626   1.34537   1.34781
 Alpha virt. eigenvalues --    1.35217   1.37975   1.38744   1.41014   1.41783
 Alpha virt. eigenvalues --    1.43055   1.43917   1.45963   1.46788   1.46877
 Alpha virt. eigenvalues --    1.48095   1.48618   1.49205   1.50187   1.50796
 Alpha virt. eigenvalues --    1.51821   1.51879   1.53775   1.54263   1.57835
 Alpha virt. eigenvalues --    1.61186   1.63169   1.71280   1.71500   1.74427
 Alpha virt. eigenvalues --    1.76363   1.76386   1.77498   1.79006   1.79488
 Alpha virt. eigenvalues --    1.79638   1.80149   1.80799   1.83105   1.84415
 Alpha virt. eigenvalues --    1.85306   1.86679   1.89675   1.90037   1.90357
 Alpha virt. eigenvalues --    1.91564   1.92044   1.92838   1.92855   1.94399
 Alpha virt. eigenvalues --    1.94647   1.96360   1.98386   1.98978   2.00300
 Alpha virt. eigenvalues --    2.01764   2.02347   2.04552   2.05802   2.06168
 Alpha virt. eigenvalues --    2.06358   2.07525   2.07881   2.14268   2.14764
 Alpha virt. eigenvalues --    2.15368   2.16011   2.19562   2.20603   2.21781
 Alpha virt. eigenvalues --    2.22333   2.23290   2.25882   2.27742   2.28983
 Alpha virt. eigenvalues --    2.30040   2.31990   2.33083   2.33539   2.33924
 Alpha virt. eigenvalues --    2.34357   2.35722   2.36146   2.36536   2.39349
 Alpha virt. eigenvalues --    2.40588   2.41834   2.45816   2.48707   2.50139
 Alpha virt. eigenvalues --    2.50282   2.56452   2.58461   2.60563   2.60969
 Alpha virt. eigenvalues --    2.61916   2.63843   2.64203   2.64781   2.65717
 Alpha virt. eigenvalues --    2.67056   2.68389   2.68491   2.70403   2.74098
 Alpha virt. eigenvalues --    2.75164   2.76896   2.79987   2.81947   2.83643
 Alpha virt. eigenvalues --    2.85122   2.86682   2.87042   2.88042   2.90366
 Alpha virt. eigenvalues --    2.92313   2.97408   3.02965   3.05544   3.06040
 Alpha virt. eigenvalues --    3.13425   3.19345   3.34803   3.38923   3.46774
 Alpha virt. eigenvalues --    3.49144   3.94798   4.05235   4.09790   4.10270
 Alpha virt. eigenvalues --    4.10888   4.11370   4.14552   4.15413   4.15766
 Alpha virt. eigenvalues --    4.16556   4.21929   4.28012   4.30331   4.31168
 Alpha virt. eigenvalues --    4.40225   4.40935   4.43465   4.48647   4.56213
 Alpha virt. eigenvalues --    4.62065   4.79202   4.88156
          Condensed to atoms (all electrons):
               1          2          3          4          5          6
     1  C    4.908772   0.522215  -0.005611  -0.038610  -0.023510   0.495721
     2  C    0.522215   5.086338   0.453760  -0.043794  -0.066026  -0.019881
     3  C   -0.005611   0.453760   4.836375   0.450639  -0.031630  -0.037655
     4  C   -0.038610  -0.043794   0.450639   4.751465   0.455133  -0.006879
     5  C   -0.023510  -0.066026  -0.031630   0.455133   5.082436   0.521764
     6  C    0.495721  -0.019881  -0.037655  -0.006879   0.521764   4.906599
     7  H    0.357134  -0.038508   0.003210   0.000953   0.004590  -0.043560
     8  H   -0.046272   0.343704  -0.031721   0.005669   0.000567   0.004776
     9  C    0.007840  -0.082296   0.393983  -0.015194   0.012443  -0.000635
    10  C   -0.000410   0.014584  -0.021845   0.437134  -0.082188   0.008001
    11  H    0.004709   0.000504   0.004255  -0.044194   0.354635  -0.045657
    12  H   -0.040923   0.004223   0.001027   0.002823  -0.037519   0.355413
    13  C    0.000065  -0.000801  -0.055834  -0.000207   0.009249  -0.000436
    14  C   -0.000220   0.010638   0.011593  -0.055657  -0.000660   0.000037
    15  H    0.000010  -0.000196   0.004678  -0.037936  -0.008524   0.000215
    16  H   -0.000000   0.000014   0.000870   0.002523  -0.000205   0.000004
    17  C    0.000000   0.000000  -0.000001   0.000000  -0.000000  -0.000000
    18  C   -0.000000   0.000001  -0.000001  -0.000000   0.000000  -0.000000
    19  C   -0.000002   0.000010   0.000084  -0.000000  -0.000000   0.000000
    20  C    0.000044  -0.000351  -0.000686   0.000084  -0.000001  -0.000001
    21  C   -0.000001   0.000012  -0.000351   0.000010   0.000001   0.000000
    22  C   -0.000000  -0.000001   0.000044  -0.000002  -0.000000   0.000000
    23  H   -0.000000  -0.000001   0.000000   0.000000  -0.000000   0.000000
    24  H    0.000000  -0.000000   0.000000  -0.000000  -0.000000   0.000000
    25  H   -0.000000   0.000000  -0.000000   0.000000  -0.000000   0.000000
    26  C    0.000001  -0.000062  -0.000011   0.000000  -0.000000   0.000000
    27  C    0.001332  -0.020969  -0.065279   0.008104  -0.000059  -0.000035
    28  H    0.000002  -0.000010  -0.000258  -0.000052  -0.000003   0.000000
    29  H   -0.000000  -0.000000  -0.000000   0.000000   0.000000   0.000000
    30  C   -0.000016   0.002651  -0.011491  -0.000043  -0.000015  -0.000003
    31  C   -0.000057  -0.001142   0.001143   0.000011  -0.000000   0.000000
    32  H    0.000001   0.000037  -0.000013  -0.000000   0.000000  -0.000000
    33  O    0.000000  -0.000056   0.002214   0.000265   0.000000  -0.000000
    34  H   -0.000000   0.000006   0.000084  -0.000105  -0.000001   0.000000
    35  O   -0.000936  -0.001285  -0.005529  -0.000464  -0.000001   0.000011
    36  H    0.000074   0.000446   0.000083   0.000009  -0.000000  -0.000002
               7          8          9         10         11         12
     1  C    0.357134  -0.046272   0.007840  -0.000410   0.004709  -0.040923
     2  C   -0.038508   0.343704  -0.082296   0.014584   0.000504   0.004223
     3  C    0.003210  -0.031721   0.393983  -0.021845   0.004255   0.001027
     4  C    0.000953   0.005669  -0.015194   0.437134  -0.044194   0.002823
     5  C    0.004590   0.000567   0.012443  -0.082188   0.354635  -0.037519
     6  C   -0.043560   0.004776  -0.000635   0.008001  -0.045657   0.355413
     7  H    0.604762  -0.006158  -0.000166   0.000007  -0.000203  -0.004826
     8  H   -0.006158   0.598304  -0.014785  -0.000192   0.000019  -0.000193
     9  C   -0.000166  -0.014785   5.247254  -0.061233  -0.000155   0.000015
    10  C    0.000007  -0.000192  -0.061233   5.119241  -0.009012  -0.000206
    11  H   -0.000203   0.000019  -0.000155  -0.009012   0.609263  -0.005410
    12  H   -0.004826  -0.000193   0.000015  -0.000206  -0.005410   0.600988
    13  C   -0.000000   0.000016  -0.030467   0.449730   0.000362   0.000004
    14  C    0.000003  -0.000176   0.419160   0.010499   0.000010  -0.000000
    15  H   -0.000000   0.000003   0.000534   0.349508   0.006856  -0.000014
    16  H   -0.000000   0.000000   0.003907  -0.027332  -0.000012  -0.000000
    17  C    0.000000   0.000000  -0.000035   0.000000   0.000000   0.000000
    18  C    0.000000  -0.000003  -0.000059  -0.000000  -0.000000  -0.000000
    19  C    0.000000  -0.000052   0.008104   0.000000   0.000000  -0.000000
    20  C   -0.000000  -0.000258  -0.065279  -0.000011  -0.000000   0.000000
    21  C   -0.000000  -0.000010  -0.020967  -0.000062   0.000000  -0.000000
    22  C   -0.000000   0.000002   0.001332   0.000001  -0.000000   0.000000
    23  H   -0.000000  -0.000001   0.000009  -0.000000   0.000000   0.000000
    24  H   -0.000000  -0.000000   0.000000   0.000000  -0.000000   0.000000
    25  H    0.000000   0.000000   0.000001  -0.000000   0.000000  -0.000000
    26  C   -0.000000   0.000043  -0.000961  -0.000000  -0.000000   0.000000
    27  C    0.000001   0.004190   0.305765  -0.000961   0.000001   0.000000
    28  H   -0.000000  -0.000005   0.004190   0.000043   0.000000  -0.000000
    29  H    0.000000  -0.000000   0.000001  -0.000000   0.000000  -0.000000
    30  C    0.000012   0.011119  -0.053491   0.000041   0.000000  -0.000000
    31  C   -0.000001   0.002416   0.007430  -0.000000   0.000000   0.000000
    32  H    0.000000   0.000013  -0.000106   0.000000  -0.000000  -0.000000
    33  O   -0.000000  -0.000001  -0.060900   0.005148  -0.000000   0.000000
    34  H    0.000000   0.000000   0.006717   0.000946  -0.000000  -0.000000
    35  O   -0.000018  -0.004953   0.003410   0.000010  -0.000000   0.000000
    36  H    0.000002   0.000466  -0.000388  -0.000000  -0.000000  -0.000000
              13         14         15         16         17         18
     1  C    0.000065  -0.000220   0.000010  -0.000000   0.000000  -0.000000
     2  C   -0.000801   0.010638  -0.000196   0.000014   0.000000   0.000001
     3  C   -0.055834   0.011593   0.004678   0.000870  -0.000001  -0.000001
     4  C   -0.000207  -0.055657  -0.037936   0.002523   0.000000  -0.000000
     5  C    0.009249  -0.000660  -0.008524  -0.000205  -0.000000   0.000000
     6  C   -0.000436   0.000037   0.000215   0.000004  -0.000000  -0.000000
     7  H   -0.000000   0.000003  -0.000000  -0.000000   0.000000   0.000000
     8  H    0.000016  -0.000176   0.000003   0.000000   0.000000  -0.000003
     9  C   -0.030467   0.419160   0.000534   0.003907  -0.000035  -0.000059
    10  C    0.449730   0.010499   0.349508  -0.027332   0.000000  -0.000000
    11  H    0.000362   0.000010   0.006856  -0.000012   0.000000  -0.000000
    12  H    0.000004  -0.000000  -0.000014  -0.000000   0.000000  -0.000000
    13  C    5.175124   0.414492  -0.040343   0.340978   0.000000  -0.000000
    14  C    0.414492   4.764519   0.003329  -0.042746  -0.000003  -0.000015
    15  H   -0.040343   0.003329   0.594816  -0.005375   0.000000  -0.000000
    16  H    0.340978  -0.042746  -0.005375   0.605210  -0.000000   0.000000
    17  C    0.000000  -0.000003   0.000000  -0.000000   4.906599   0.521764
    18  C   -0.000000  -0.000015  -0.000000   0.000000   0.521764   5.082435
    19  C    0.000011  -0.000043   0.000000  -0.000000  -0.006879   0.455132
    20  C    0.001143  -0.011490   0.000000  -0.000013  -0.037655  -0.031631
    21  C   -0.001142   0.002650  -0.000001   0.000037  -0.019880  -0.066027
    22  C   -0.000057  -0.000016  -0.000000   0.000001   0.495721  -0.023511
    23  H   -0.000000  -0.000000  -0.000000  -0.000000   0.000215  -0.008524
    24  H    0.000000  -0.000000   0.000000  -0.000000   0.355413  -0.037519
    25  H    0.000000   0.000000   0.000000  -0.000000  -0.045658   0.354636
    26  C   -0.000000   0.000041  -0.000000   0.000000   0.008002  -0.082187
    27  C    0.007430  -0.053492   0.000009  -0.000106  -0.000635   0.012443
    28  H    0.002416   0.011118  -0.000001   0.000013   0.004776   0.000568
    29  H   -0.000001   0.000012  -0.000000   0.000000  -0.043560   0.004590
    30  C   -0.000309   0.005996  -0.000000   0.000002   0.000037  -0.000660
    31  C    0.000002  -0.000309  -0.000000  -0.000000  -0.000436   0.009250
    32  H   -0.000000   0.000002  -0.000000   0.000000   0.000004  -0.000205
    33  O   -0.061576   0.263068  -0.000060  -0.005775   0.000011  -0.000001
    34  H   -0.005655  -0.031737  -0.000018   0.008697  -0.000002  -0.000000
    35  O   -0.000014   0.000028   0.000000  -0.000000  -0.000000   0.000000
    36  H    0.000000   0.000017  -0.000000   0.000000   0.000000  -0.000001
              19         20         21         22         23         24
     1  C   -0.000002   0.000044  -0.000001  -0.000000  -0.000000   0.000000
     2  C    0.000010  -0.000351   0.000012  -0.000001  -0.000001  -0.000000
     3  C    0.000084  -0.000686  -0.000351   0.000044   0.000000   0.000000
     4  C   -0.000000   0.000084   0.000010  -0.000002   0.000000  -0.000000
     5  C   -0.000000  -0.000001   0.000001  -0.000000  -0.000000  -0.000000
     6  C    0.000000  -0.000001   0.000000   0.000000   0.000000   0.000000
     7  H    0.000000  -0.000000  -0.000000  -0.000000  -0.000000  -0.000000
     8  H   -0.000052  -0.000258  -0.000010   0.000002  -0.000001  -0.000000
     9  C    0.008104  -0.065279  -0.020967   0.001332   0.000009   0.000000
    10  C    0.000000  -0.000011  -0.000062   0.000001  -0.000000   0.000000
    11  H    0.000000  -0.000000   0.000000  -0.000000   0.000000  -0.000000
    12  H   -0.000000   0.000000  -0.000000   0.000000   0.000000   0.000000
    13  C    0.000011   0.001143  -0.001142  -0.000057  -0.000000   0.000000
    14  C   -0.000043  -0.011490   0.002650  -0.000016  -0.000000  -0.000000
    15  H    0.000000   0.000000  -0.000001  -0.000000  -0.000000   0.000000
    16  H   -0.000000  -0.000013   0.000037   0.000001  -0.000000  -0.000000
    17  C   -0.006879  -0.037655  -0.019880   0.495721   0.000215   0.355413
    18  C    0.455132  -0.031631  -0.066027  -0.023511  -0.008524  -0.037519
    19  C    4.751468   0.450636  -0.043794  -0.038610  -0.037936   0.002823
    20  C    0.450636   4.836382   0.453758  -0.005611   0.004678   0.001027
    21  C   -0.043794   0.453758   5.086339   0.522217  -0.000196   0.004223
    22  C   -0.038610  -0.005611   0.522217   4.908768   0.000010  -0.040923
    23  H   -0.037936   0.004678  -0.000196   0.000010   0.594816  -0.000014
    24  H    0.002823   0.001027   0.004223  -0.040923  -0.000014   0.600988
    25  H   -0.044194   0.004255   0.000504   0.004709   0.006856  -0.005410
    26  C    0.437133  -0.021843   0.014584  -0.000410   0.349508  -0.000206
    27  C   -0.015190   0.393978  -0.082296   0.007840   0.000534   0.000015
    28  H    0.005669  -0.031722   0.343705  -0.046273   0.000003  -0.000193
    29  H    0.000953   0.003210  -0.038508   0.357134  -0.000000  -0.004826
    30  C   -0.055658   0.011595   0.010638  -0.000220   0.003329  -0.000000
    31  C   -0.000205  -0.055837  -0.000801   0.000065  -0.040344   0.000004
    32  H    0.002523   0.000870   0.000014  -0.000000  -0.005375  -0.000000
    33  O   -0.000464  -0.005529  -0.001284  -0.000936   0.000000   0.000000
    34  H    0.000009   0.000083   0.000446   0.000074  -0.000000  -0.000000
    35  O    0.000265   0.002214  -0.000056   0.000000  -0.000060   0.000000
    36  H   -0.000105   0.000084   0.000006  -0.000000  -0.000018  -0.000000
              25         26         27         28         29         30
     1  C   -0.000000   0.000001   0.001332   0.000002  -0.000000  -0.000016
     2  C    0.000000  -0.000062  -0.020969  -0.000010  -0.000000   0.002651
     3  C   -0.000000  -0.000011  -0.065279  -0.000258  -0.000000  -0.011491
     4  C    0.000000   0.000000   0.008104  -0.000052   0.000000  -0.000043
     5  C   -0.000000  -0.000000  -0.000059  -0.000003   0.000000  -0.000015
     6  C    0.000000   0.000000  -0.000035   0.000000   0.000000  -0.000003
     7  H    0.000000  -0.000000   0.000001  -0.000000   0.000000   0.000012
     8  H    0.000000   0.000043   0.004190  -0.000005  -0.000000   0.011119
     9  C    0.000001  -0.000961   0.305765   0.004190   0.000001  -0.053491
    10  C   -0.000000  -0.000000  -0.000961   0.000043  -0.000000   0.000041
    11  H    0.000000  -0.000000   0.000001   0.000000   0.000000   0.000000
    12  H   -0.000000   0.000000   0.000000  -0.000000  -0.000000  -0.000000
    13  C    0.000000  -0.000000   0.007430   0.002416  -0.000001  -0.000309
    14  C    0.000000   0.000041  -0.053492   0.011118   0.000012   0.005996
    15  H    0.000000  -0.000000   0.000009  -0.000001  -0.000000  -0.000000
    16  H   -0.000000   0.000000  -0.000106   0.000013   0.000000   0.000002
    17  C   -0.045658   0.008002  -0.000635   0.004776  -0.043560   0.000037
    18  C    0.354636  -0.082187   0.012443   0.000568   0.004590  -0.000660
    19  C   -0.044194   0.437133  -0.015190   0.005669   0.000953  -0.055658
    20  C    0.004255  -0.021843   0.393978  -0.031722   0.003210   0.011595
    21  C    0.000504   0.014584  -0.082296   0.343705  -0.038508   0.010638
    22  C    0.004709  -0.000410   0.007840  -0.046273   0.357134  -0.000220
    23  H    0.006856   0.349508   0.000534   0.000003  -0.000000   0.003329
    24  H   -0.005410  -0.000206   0.000015  -0.000193  -0.004826  -0.000000
    25  H    0.609264  -0.009013  -0.000155   0.000019  -0.000203   0.000010
    26  C   -0.009013   5.119242  -0.061235  -0.000192   0.000007   0.010499
    27  C   -0.000155  -0.061235   5.247267  -0.014784  -0.000166   0.419155
    28  H    0.000019  -0.000192  -0.014784   0.598305  -0.006158  -0.000176
    29  H   -0.000203   0.000007  -0.000166  -0.006158   0.604763   0.000003
    30  C    0.000010   0.010499   0.419155  -0.000176   0.000003   4.764524
    31  C    0.000362   0.449727  -0.030464   0.000016  -0.000000   0.414493
    32  H   -0.000012  -0.027332   0.003907   0.000000  -0.000000  -0.042746
    33  O   -0.000000   0.000010   0.003410  -0.004951  -0.000018   0.000028
    34  H   -0.000000  -0.000000  -0.000388   0.000466   0.000002   0.000017
    35  O   -0.000000   0.005148  -0.060902  -0.000001  -0.000000   0.263068
    36  H   -0.000000   0.000946   0.006717   0.000000   0.000000  -0.031739
              31         32         33         34         35         36
     1  C   -0.000057   0.000001   0.000000  -0.000000  -0.000936   0.000074
     2  C   -0.001142   0.000037  -0.000056   0.000006  -0.001285   0.000446
     3  C    0.001143  -0.000013   0.002214   0.000084  -0.005529   0.000083
     4  C    0.000011  -0.000000   0.000265  -0.000105  -0.000464   0.000009
     5  C   -0.000000   0.000000   0.000000  -0.000001  -0.000001  -0.000000
     6  C    0.000000  -0.000000  -0.000000   0.000000   0.000011  -0.000002
     7  H   -0.000001   0.000000  -0.000000   0.000000  -0.000018   0.000002
     8  H    0.002416   0.000013  -0.000001   0.000000  -0.004953   0.000466
     9  C    0.007430  -0.000106  -0.060900   0.006717   0.003410  -0.000388
    10  C   -0.000000   0.000000   0.005148   0.000946   0.000010  -0.000000
    11  H    0.000000  -0.000000  -0.000000  -0.000000  -0.000000  -0.000000
    12  H    0.000000  -0.000000   0.000000  -0.000000   0.000000  -0.000000
    13  C    0.000002  -0.000000  -0.061576  -0.005655  -0.000014   0.000000
    14  C   -0.000309   0.000002   0.263068  -0.031737   0.000028   0.000017
    15  H   -0.000000  -0.000000  -0.000060  -0.000018   0.000000  -0.000000
    16  H   -0.000000   0.000000  -0.005775   0.008697  -0.000000   0.000000
    17  C   -0.000436   0.000004   0.000011  -0.000002  -0.000000   0.000000
    18  C    0.009250  -0.000205  -0.000001  -0.000000   0.000000  -0.000001
    19  C   -0.000205   0.002523  -0.000464   0.000009   0.000265  -0.000105
    20  C   -0.055837   0.000870  -0.005529   0.000083   0.002214   0.000084
    21  C   -0.000801   0.000014  -0.001284   0.000446  -0.000056   0.000006
    22  C    0.000065  -0.000000  -0.000936   0.000074   0.000000  -0.000000
    23  H   -0.040344  -0.005375   0.000000  -0.000000  -0.000060  -0.000018
    24  H    0.000004  -0.000000   0.000000  -0.000000   0.000000  -0.000000
    25  H    0.000362  -0.000012  -0.000000  -0.000000  -0.000000  -0.000000
    26  C    0.449727  -0.027332   0.000010  -0.000000   0.005148   0.000946
    27  C   -0.030464   0.003907   0.003410  -0.000388  -0.060902   0.006717
    28  H    0.000016   0.000000  -0.004951   0.000466  -0.000001   0.000000
    29  H   -0.000000  -0.000000  -0.000018   0.000002  -0.000000   0.000000
    30  C    0.414493  -0.042746   0.000028   0.000017   0.263068  -0.031739
    31  C    5.175131   0.340978  -0.000014   0.000000  -0.061577  -0.005655
    32  H    0.340978   0.605210  -0.000000   0.000000  -0.005775   0.008697
    33  O   -0.000014  -0.000000   8.255880   0.241935   0.000000  -0.000000
    34  H    0.000000   0.000000   0.241935   0.372266  -0.000000  -0.000000
    35  O   -0.061577  -0.005775   0.000000  -0.000000   8.255877   0.241935
    36  H   -0.005655   0.008697  -0.000000  -0.000000   0.241935   0.372267
 Mulliken charges:
               1
     1  C   -0.141349
     2  C   -0.163764
     3  C    0.103875
     4  C    0.128315
     5  C   -0.190476
     6  C   -0.137797
     7  H    0.122767
     8  H    0.133474
     9  C   -0.014979
    10  C   -0.191440
    11  H    0.124029
    12  H    0.124599
    13  C   -0.204180
    14  C    0.279355
    15  H    0.132509
    16  H    0.119309
    17  C   -0.137797
    18  C   -0.190474
    19  C    0.128312
    20  C    0.103879
    21  C   -0.163768
    22  C   -0.141347
    23  H    0.132509
    24  H    0.124599
    25  H    0.124029
    26  C   -0.191438
    27  C   -0.014984
    28  H    0.133472
    29  H    0.122767
    30  C    0.279352
    31  C   -0.204185
    32  H    0.119309
    33  O   -0.630404
    34  H    0.406159
    35  O   -0.630397
    36  H    0.406159
 Sum of Mulliken charges =  -0.00000
 Mulliken charges with hydrogens summed into heavy atoms:
               1
     1  C   -0.018582
     2  C   -0.030290
     3  C    0.103875
     4  C    0.128315
     5  C   -0.066447
     6  C   -0.013198
     9  C   -0.014979
    10  C   -0.058930
    13  C   -0.084871
    14  C    0.279355
    17  C   -0.013198
    18  C   -0.066446
    19  C    0.128312
    20  C    0.103879
    21  C   -0.030296
    22  C   -0.018580
    26  C   -0.058929
    27  C   -0.014984
    30  C    0.279352
    31  C   -0.084876
    33  O   -0.224245
    35  O   -0.224239
 Electronic spatial extent (au):  <R**2>=           5988.6904
 Charge=              0.0000 electrons
 Dipole moment (field-independent basis, Debye):
    X=             -0.0000    Y=              0.0000    Z=             -0.1526  Tot=              0.1526
 Quadrupole moment (field-independent basis, Debye-Ang):
   XX=           -116.7742   YY=            -98.4362   ZZ=           -127.2892
   XY=              5.8021   XZ=              0.0001   YZ=              0.0002
 Traceless Quadrupole moment (field-independent basis, Debye-Ang):
   XX=             -2.6077   YY=             15.7303   ZZ=            -13.1226
   XY=              5.8021   XZ=              0.0001   YZ=              0.0002
 Octapole moment (field-independent basis, Debye-Ang**2):
  XXX=             -0.0008  YYY=              0.0014  ZZZ=            -18.8691  XYY=             -0.0002
  XXY=              0.0003  XXZ=             22.3010  XZZ=             -0.0001  YZZ=             -0.0005
  YYZ=            -35.2277  XYZ=            -18.8982
 Hexadecapole moment (field-independent basis, Debye-Ang**3):
 XXXX=          -4946.9850 YYYY=          -1704.3423 ZZZZ=           -818.1342 XXXY=             69.7328
 XXXZ=              0.0018 YYYX=             17.8502 YYYZ=              0.0010 ZZZX=              0.0004
 ZZZY=              0.0021 XXYY=          -1160.0412 XXZZ=          -1039.9673 YYZZ=           -400.3658
 XXYZ=              0.0010 YYXZ=              0.0012 ZZXY=            -33.4873
 N-N= 1.676461394937D+03 E-N=-5.492997516477D+03  KE= 9.122939421883D+02
 Unable to Open any file for archive entry.
 1\1\GINC-CCC139\SP\RB3LYP TD-FC\6-31G(d)\C20H14O2\ROOT\20-Feb-2025\0\\
 # td=(nstat=16) b3lyp/6-31g(d)\\binol | No.7\\0,1\C,0,-2.989817,-1.884
 461,-1.351029\C,0,-1.850348,-1.409049,-0.740283\C,0,-1.824208,-0.15608
 ,-0.063267\C,0,-3.023675,0.632844,-0.141163\C,0,-4.194029,0.103042,-0.
 747942\C,0,-4.19098,-1.140656,-1.332028\H,0,-2.958524,-2.841583,-1.865
 649\H,0,-0.943161,-1.992364,-0.809428\C,0,-0.652829,0.367927,0.614857\
 C,0,-3.007002,1.972776,0.319494\H,0,-5.089759,0.720113,-0.762777\H,0,-
 5.087792,-1.53483,-1.801943\C,0,-1.852213,2.516707,0.813046\C,0,-0.681
 181,1.72851,0.928728\H,0,-3.912994,2.569668,0.25139\H,0,-1.823263,3.55
 4529,1.141689\C,0,4.190998,1.140645,-1.332013\C,0,4.194034,-0.103047,-
 0.74792\C,0,3.023667,-0.632846,-0.141163\C,0,1.824199,0.156079,-0.0632
 83\C,0,1.85036,1.409051,-0.740298\C,0,2.989839,1.884455,-1.35103\H,0,3
 .912985,-2.569665,0.251409\H,0,5.087818,1.534811,-1.801919\H,0,5.08976
 3,-0.72012,-0.762738\C,0,3.00699,-1.972776,0.319496\C,0,0.652811,-0.36
 793,0.614833\H,0,0.943179,1.992368,-0.809469\H,0,2.958558,2.841574,-1.
 865656\C,0,0.681165,-1.728513,0.928703\C,0,1.8522,-2.516705,0.813045\H
 ,0,1.823255,-3.554518,1.141714\O,0,0.420484,2.273967,1.53751\H,0,0.236
 812,3.202976,1.744157\O,0,-0.420481,-2.273948,1.53753\H,0,-0.236793,-3
 .202948,1.744199\\Version=ES64L-G16RevC.02\State=1-A\HF=-920.9974995\R
 MSD=6.679e-09\PG=C01 [X(C20H14O2)]\\@
 The archive entry for this job was punched.


 GOD DOES NOT PLAY WITH DICE.
               -- A. EINSTEIN
 Job cpu time:       0 days  0 hours 41 minutes 42.6 seconds.
 Elapsed time:       0 days  0 hours  5 minutes 22.8 seconds.
 File lengths (MBytes):  RWF=   1295 Int=      0 D2E=      0 Chk=     78 Scr=      1
 Normal termination of Gaussian 16 at Thu Feb 20 09:32:19 2025.
