 Entering Gaussian System, Link 0=/apl/gaussian/16c02/g16/._.g16
 Initial command:
 /apl/gaussian/16c02/g16/l1.exe "/lwork/users/ux8/8279356.ccpbs1/gaussian/Gau-1922511.inp" -scrdir="/lwork/users/ux8/8279356.ccpbs1/gaussian/"
 Default CPUs for threads: 104,105,106,107,108,109,110,111
 Default is to use a total of   8 processors:
                                8 via shared-memory
                                1 via Linda
 Entering Link 1 = /apl/gaussian/16c02/g16/l1.exe PID=   1922512.
  
 Copyright (c) 1988-2021, Gaussian, Inc.  All Rights Reserved.
  
 This is part of the Gaussian(R) 16 program.  It is based on
 the Gaussian(R) 09 system (copyright 2009, Gaussian, Inc.),
 the Gaussian(R) 03 system (copyright 2003, Gaussian, Inc.),
 the Gaussian(R) 98 system (copyright 1998, Gaussian, Inc.),
 the Gaussian(R) 94 system (copyright 1995, Gaussian, Inc.),
 the Gaussian 92(TM) system (copyright 1992, Gaussian, Inc.),
 the Gaussian 90(TM) system (copyright 1990, Gaussian, Inc.),
 the Gaussian 88(TM) system (copyright 1988, Gaussian, Inc.),
 the Gaussian 86(TM) system (copyright 1986, Carnegie Mellon
 University), and the Gaussian 82(TM) system (copyright 1983,
 Carnegie Mellon University). Gaussian is a federally registered
 trademark of Gaussian, Inc.
  
 This software contains proprietary and confidential information,
 including trade secrets, belonging to Gaussian, Inc.
  
 This software is provided under written license and may be
 used, copied, transmitted, or stored only in accord with that
 written license.
  
 The following legend is applicable only to US Government
 contracts under FAR:
  
                    RESTRICTED RIGHTS LEGEND
  
 Use, reproduction and disclosure by the US Government is
 subject to restrictions as set forth in subparagraphs (a)
 and (c) of the Commercial Computer Software - Restricted
 Rights clause in FAR 52.227-19.
  
 Gaussian, Inc.
 340 Quinnipiac St., Bldg. 40, Wallingford CT 06492
  
  
 ---------------------------------------------------------------
 Warning -- This program may not be used in any manner that
 competes with the business of Gaussian, Inc. or will provide
 assistance to any competitor of Gaussian, Inc.  The licensee
 of this program is prohibited from giving any competitor of
 Gaussian, Inc. access to this program.  By using this program,
 the user acknowledges that Gaussian, Inc. is engaged in the
 business of creating and licensing software in the field of
 computational chemistry and represents and warrants to the
 licensee that it is not a competitor of Gaussian, Inc. and that
 it will not use this program in any manner prohibited above.
 ---------------------------------------------------------------
  

 Cite this work as:
 Gaussian 16, Revision C.02,
 M. J. Frisch, G. W. Trucks, H. B. Schlegel, G. E. Scuseria, 
 M. A. Robb, J. R. Cheeseman, G. Scalmani, V. Barone, 
 G. A. Petersson, H. Nakatsuji, X. Li, M. Caricato, A. V. Marenich, 
 J. Bloino, B. G. Janesko, R. Gomperts, B. Mennucci, H. P. Hratchian, 
 J. V. Ortiz, A. F. Izmaylov, J. L. Sonnenberg, D. Williams-Young, 
 F. Ding, F. Lipparini, F. Egidi, J. Goings, B. Peng, A. Petrone, 
 T. Henderson, D. Ranasinghe, V. G. Zakrzewski, J. Gao, N. Rega, 
 G. Zheng, W. Liang, M. Hada, M. Ehara, K. Toyota, R. Fukuda, 
 J. Hasegawa, M. Ishida, T. Nakajima, Y. Honda, O. Kitao, H. Nakai, 
 T. Vreven, K. Throssell, J. A. Montgomery, Jr., J. E. Peralta, 
 F. Ogliaro, M. J. Bearpark, J. J. Heyd, E. N. Brothers, K. N. Kudin, 
 V. N. Staroverov, T. A. Keith, R. Kobayashi, J. Normand, 
 K. Raghavachari, A. P. Rendell, J. C. Burant, S. S. Iyengar, 
 J. Tomasi, M. Cossi, J. M. Millam, M. Klene, C. Adamo, R. Cammi, 
 J. W. Ochterski, R. L. Martin, K. Morokuma, O. Farkas, 
 J. B. Foresman, and D. J. Fox, Gaussian, Inc., Wallingford CT, 2019.
 
 ******************************************
 Gaussian 16:  ES64L-G16RevC.02  7-Dec-2021
                20-Feb-2025 
 ******************************************
 %chk=binol.002.tddft.chk
 %mem=9600MB
 SetSPE:  set environment variable "OMP_PROC_BIND" = "true"
 SetSPE:  set environment variable "OMP_PLACES" = "{104},{105},{106},{107},{108},{109},{110},{111}"
 ------------------------------
 # td=(nstat=16) b3lyp/6-31g(d)
 ------------------------------
 1/38=1,172=1/1;
 2/12=2,17=6,18=5,40=1/2;
 3/5=1,6=6,7=1,11=9,25=1,30=1,74=-5/1,2,3,8;
 4//1;
 5/5=2,38=5/2;
 8/6=1,10=2,108=16/1;
 9/41=16,42=1,70=2/14;
 6/7=2,8=2,9=2,10=2/1;
 99/5=1,9=1/99;
 ------------
 binol | No.2
 ------------
 Symbolic Z-matrix:
 Charge =  0 Multiplicity = 1
 C                    -1.7184    2.7267   -1.83083 
 C                    -1.27847   1.65544  -1.08625 
 C                    -0.12876   1.76015  -0.25421 
 C                     0.56277   3.0171   -0.2193 
 C                     0.08089   4.10295  -0.99793 
 C                    -1.03673   3.96679  -1.78833 
 H                    -2.59853   2.61973  -2.45975 
 H                    -1.80645   0.70862  -1.1298 
 C                     0.34951   0.66054   0.52707 
 C                     1.7184    3.13996   0.59342 
 H                     0.61711   5.04866  -0.95744 
 H                    -1.39615   4.80393  -2.38051 
 C                     2.17277   2.07702   1.334 
 C                     1.48721   0.83648   1.30181 
 H                     2.24549   4.09051   0.62305 
 H                     3.06051   2.17818   1.95666 
 C                     1.03673  -3.96679  -1.78833 
 C                    -0.08089  -4.10295  -0.99793 
 C                    -0.56277  -3.0171   -0.2193 
 C                     0.12876  -1.76015  -0.25421 
 C                     1.27847  -1.65544  -1.08625 
 C                     1.7184   -2.7267   -1.83083 
 H                    -2.24549  -4.09051   0.62305 
 H                     1.39615  -4.80393  -2.38051 
 H                    -0.61711  -5.04866  -0.95744 
 C                    -1.7184   -3.13996   0.59342 
 C                    -0.34951  -0.66054   0.52707 
 H                     1.80645  -0.70862  -1.1298 
 H                     2.59853  -2.61973  -2.45975 
 C                    -1.48721  -0.83648   1.30181 
 C                    -2.17277  -2.07702   1.334 
 H                    -3.06051  -2.17818   1.95666 
 O                     1.93324  -0.22409   2.04332 
 H                     2.73056   0.04527   2.52448 
 O                    -1.93324   0.22409   2.04332 
 H                    -2.73056  -0.04527   2.52448 
 
                          Input orientation:                          
 ---------------------------------------------------------------------
 Center     Atomic      Atomic             Coordinates (Angstroms)
 Number     Number       Type             X           Y           Z
 ---------------------------------------------------------------------
      1          6           0       -1.718403    2.726698   -1.830828
      2          6           0       -1.278474    1.655443   -1.086247
      3          6           0       -0.128762    1.760153   -0.254213
      4          6           0        0.562766    3.017102   -0.219296
      5          6           0        0.080892    4.102952   -0.997925
      6          6           0       -1.036727    3.966787   -1.788330
      7          1           0       -2.598533    2.619733   -2.459753
      8          1           0       -1.806452    0.708618   -1.129797
      9          6           0        0.349511    0.660537    0.527066
     10          6           0        1.718403    3.139963    0.593422
     11          1           0        0.617112    5.048659   -0.957442
     12          1           0       -1.396152    4.803927   -2.380507
     13          6           0        2.172770    2.077021    1.333995
     14          6           0        1.487205    0.836482    1.301814
     15          1           0        2.245493    4.090506    0.623051
     16          1           0        3.060514    2.178179    1.956655
     17          6           0        1.036727   -3.966787   -1.788330
     18          6           0       -0.080892   -4.102952   -0.997925
     19          6           0       -0.562766   -3.017102   -0.219296
     20          6           0        0.128762   -1.760153   -0.254213
     21          6           0        1.278474   -1.655443   -1.086247
     22          6           0        1.718403   -2.726698   -1.830828
     23          1           0       -2.245493   -4.090506    0.623051
     24          1           0        1.396152   -4.803927   -2.380507
     25          1           0       -0.617112   -5.048659   -0.957442
     26          6           0       -1.718403   -3.139963    0.593422
     27          6           0       -0.349511   -0.660537    0.527066
     28          1           0        1.806452   -0.708618   -1.129797
     29          1           0        2.598533   -2.619733   -2.459753
     30          6           0       -1.487205   -0.836482    1.301814
     31          6           0       -2.172770   -2.077021    1.333995
     32          1           0       -3.060514   -2.178179    1.956655
     33          8           0        1.933238   -0.224087    2.043321
     34          1           0        2.730560    0.045273    2.524476
     35          8           0       -1.933238    0.224087    2.043321
     36          1           0       -2.730560   -0.045273    2.524476
 ---------------------------------------------------------------------
                    Distance matrix (angstroms):
                    1          2          3          4          5
     1  C    0.000000
     2  C    1.376781   0.000000
     3  C    2.438623   1.423054   0.000000
     4  C    2.808042   2.448649   1.435044   0.000000
     5  C    2.413559   2.801067   2.466935   1.420400   0.000000
     6  C    1.415736   2.427689   2.836750   2.433546   1.375628
     7  H    1.087022   2.135165   3.420973   3.895043   3.393552
     8  H    2.138187   1.084959   2.164952   3.430933   3.885995
     9  C    3.755656   2.498590   1.431187   2.481115   3.774649
    10  C    4.226040   3.742507   2.456497   1.418133   2.478139
    11  H    3.407189   3.888927   3.444580   2.162183   1.087903
    12  H    2.172757   3.406157   3.923259   3.420663   2.141158
    13  C    5.057609   4.236317   2.814224   2.426639   3.730711
    14  C    4.864389   3.744665   2.426054   2.814865   4.235132
    15  H    4.857362   4.611895   3.440527   2.166406   2.704296
    16  H    6.122414   5.325347   3.903097   3.417206   4.616540
    17  C    7.238459   6.120666   6.042327   7.173647   8.164499
    18  C    7.072432   5.882271   5.910279   7.191365   8.207499
    19  C    6.076493   4.805884   4.797056   6.138277   7.191365
    20  C    5.101918   3.786673   3.529713   4.797056   5.910279
    21  C    5.360861   4.183294   3.786673   4.805884   5.882271
    22  C    6.446019   5.360861   5.101918   6.076493   7.072432
    23  H    7.264545   6.072294   6.283339   7.688560   8.670201
    24  H    8.167797   7.110007   7.066374   8.156829   9.109003
    25  H    7.901381   6.737876   6.862429   8.184954   9.178280
    26  C    6.347811   5.100073   5.220784   6.616169   7.630836
    27  C    4.348205   2.971450   2.553207   3.861908   5.020127
    28  H    4.971664   3.886830   3.256767   4.031967   5.113331
    29  H    6.900421   5.932523   5.611234   6.398273   7.325978
    30  C    4.750068   3.457759   3.317996   4.622366   5.669721
    31  C    5.770465   4.537469   4.628637   5.987150   6.979177
    32  H    6.340671   5.208798   5.384567   6.697303   7.619093
    33  O    6.086924   4.862296   3.669839   4.183651   5.603894
    34  H    6.778789   5.630481   4.340236   4.589050   5.991061
    35  O    4.617169   3.503097   3.300651   4.376118   5.324612
    36  H    5.260889   4.247153   4.213078   5.268057   6.125303
                    6          7          8          9         10
     6  C    0.000000
     7  H    2.169009   0.000000
     8  H    3.412009   2.459377   0.000000
     9  C    4.267787   4.631468   2.719501   0.000000
    10  C    3.734585   5.313046   4.615791   2.832988   0.000000
    11  H    2.143830   4.300813   4.973864   4.640150   2.694651
    12  H    1.086583   2.494535   4.301648   5.354344   4.616653
    13  C    4.860144   6.119836   4.876167   2.445779   1.372860
    14  C    5.071295   5.832892   4.096005   1.387638   2.421011
    15  H    4.074682   5.927178   5.561286   3.920287   1.087306
    16  H    5.831931   7.191971   5.947533   3.420015   2.141190
    17  C    8.200049   7.553024   5.511510   5.219718   7.526176
    18  C    8.164499   7.325978   5.113331   5.020127   7.630836
    19  C    7.173647   6.398273   4.031967   3.861908   6.616169
    20  C    6.042327   5.611234   3.256767   2.553207   5.220784
    21  C    6.120666   5.932523   3.886830   2.971450   5.100073
    22  C    7.238459   6.900421   4.971664   4.348205   6.347811
    23  H    8.496814   7.392944   5.128043   5.414395   8.245789
    24  H    9.121129   8.430570   6.496853   6.277723   8.488433
    25  H    9.063372   8.061464   5.881367   5.977712   8.655249
    26  C    7.526176   6.578040   4.217679   4.327178   7.158848
    27  C    5.219718   4.973868   2.596624   1.494613   4.327178
    28  H    5.511510   5.678961   3.880932   2.596624   4.217679
    29  H    7.553024   7.379803   5.678961   4.973868   6.578040
    30  C    5.729163   5.227797   2.898618   2.492955   5.156535
    31  C    6.896892   6.052545   3.736876   3.808840   6.550313
    32  H    7.475375   6.537434   4.408226   4.661577   7.278673
    33  O    6.408250   6.992992   4.992384   2.364272   3.669495
    34  H    6.940534   7.737546   5.863294   3.168216   3.785570
    35  O    5.430754   5.143871   3.212401   2.774970   4.892752
    36  H    6.129110   5.653515   3.843961   3.738269   5.802411
                   11         12         13         14         15
    11  H    0.000000
    12  H    2.477547   0.000000
    13  C    4.062190   5.828443   0.000000
    14  C    4.858367   6.133014   1.417735   0.000000
    15  H    2.463258   4.774087   2.136551   3.409456   0.000000
    16  H    4.764644   6.750363   1.089049   2.168933   2.469768
    17  C    9.063372   9.121129   6.896892   5.729163   8.496814
    18  C    9.178280   9.109003   6.979177   5.669721   8.670201
    19  C    8.184954   8.156829   5.987150   4.622366   7.688560
    20  C    6.862429   7.066374   4.628637   3.317996   6.283339
    21  C    6.737876   7.110007   4.537469   3.457759   6.072294
    22  C    7.901381   8.167797   5.770465   4.750068   7.264545
    23  H    9.706534   9.426223   7.620031   6.218437   9.332626
    24  H    9.985263  10.005390   7.857996   6.736616   9.426223
    25  H   10.172470   9.985263   7.988081   6.645846   9.706534
    26  C    8.655249   8.488433   6.550313   5.156535   8.245789
    27  C    5.977712   6.277723   3.808840   2.492955   5.414395
    28  H    5.881367   6.496853   3.736876   2.898618   5.128043
    29  H    8.061464   8.430570   6.052545   5.227797   7.392944
    30  C    6.645846   6.736616   4.678136   3.412612   6.218437
    31  C    7.988081   7.857996   6.011637   4.678136   7.620031
    32  H    8.616501   8.386351   6.773603   5.495339   8.320374
    33  O    6.207948   7.479038   2.419838   1.368789   4.553063
    34  H    6.451689   7.983320   2.419995   1.914901   4.496067
    35  O    6.227789   6.390121   4.560242   3.553068   5.867551
    36  H    7.019886   7.025258   5.473940   4.479055   6.743974
                   16         17         18         19         20
    16  H    0.000000
    17  C    7.475375   0.000000
    18  C    7.619093   1.375628   0.000000
    19  C    6.697303   2.433546   1.420400   0.000000
    20  C    5.384567   2.836750   2.466935   1.435044   0.000000
    21  C    5.208798   2.427689   2.801067   2.448649   1.423054
    22  C    6.340671   1.415736   2.413559   2.808042   2.438623
    23  H    8.320374   4.074682   2.704296   2.166406   3.440527
    24  H    8.386351   1.086583   2.141158   3.420663   3.923259
    25  H    8.616501   2.143830   1.087903   2.162183   3.444580
    26  C    7.278673   3.734585   2.478139   1.418133   2.456497
    27  C    4.661577   4.267787   3.774649   2.481115   1.431187
    28  H    4.408226   3.412009   3.885995   3.430933   2.164952
    29  H    6.537434   2.169009   3.393552   3.895043   3.420973
    30  C    5.495339   5.071295   4.235132   2.814865   2.426054
    31  C    6.773603   4.860144   3.730711   2.426639   2.814224
    32  H    7.512978   5.831931   4.616540   3.417206   3.903097
    33  O    2.655022   5.430754   5.324612   4.376118   3.300651
    34  H    2.231721   6.129110   6.125303   5.268057   4.213078
    35  O    5.363166   6.408250   5.603894   4.183651   3.669839
    36  H    6.229181   6.940534   5.991061   4.589050   4.340236
                   21         22         23         24         25
    21  C    0.000000
    22  C    1.376781   0.000000
    23  H    4.611895   4.857362   0.000000
    24  H    3.406157   2.172757   4.774087   0.000000
    25  H    3.888927   3.407189   2.463258   2.477547   0.000000
    26  C    3.742507   4.226040   1.087306   4.616653   2.694651
    27  C    2.498590   3.755656   3.920287   5.354344   4.640150
    28  H    1.084959   2.138187   5.561286   4.301648   4.973864
    29  H    2.135165   1.087022   5.927178   2.494535   4.300813
    30  C    3.744665   4.864389   3.409456   6.133014   4.858367
    31  C    4.236317   5.057609   2.136551   5.828443   4.062190
    32  H    5.325347   6.122414   2.469768   6.750363   4.764644
    33  O    3.503097   4.617169   5.867551   6.390121   6.227789
    34  H    4.247153   5.260889   6.743974   7.025258   7.019886
    35  O    4.862296   6.086924   4.553063   7.479038   6.207948
    36  H    5.630481   6.778789   4.496067   7.983320   6.451689
                   26         27         28         29         30
    26  C    0.000000
    27  C    2.832988   0.000000
    28  H    4.615791   2.719501   0.000000
    29  H    5.313046   4.631468   2.459377   0.000000
    30  C    2.421011   1.387638   4.096005   5.832892   0.000000
    31  C    1.372860   2.445779   4.876167   6.119836   1.417735
    32  H    2.141190   3.420015   5.947533   7.191971   2.168933
    33  O    4.892752   2.774970   3.212401   5.143871   3.553068
    34  H    5.802411   3.738269   3.843961   5.653515   4.479055
    35  O    3.669495   2.364272   4.992384   6.992992   1.368789
    36  H    3.785570   3.168216   5.863294   7.737546   1.914901
                   31         32         33         34         35
    31  C    0.000000
    32  H    1.089049   0.000000
    33  O    4.560242   5.363166   0.000000
    34  H    5.473940   6.229181   0.969426   0.000000
    35  O    2.419838   2.655022   3.892364   4.691961   0.000000
    36  H    2.419995   2.231721   4.691961   5.461871   0.969426
                   36
    36  H    0.000000
 Stoichiometry    C20H14O2
 Framework group  C2[X(C20H14O2)]
 Deg. of freedom    52
 Full point group                 C2      NOp   2
 Largest Abelian subgroup         C2      NOp   2
 Largest concise Abelian subgroup C2      NOp   2
                         Standard orientation:                         
 ---------------------------------------------------------------------
 Center     Atomic      Atomic             Coordinates (Angstroms)
 Number     Number       Type             X           Y           Z
 ---------------------------------------------------------------------
      1          6           0       -1.718403    2.726698   -1.830828
      2          6           0       -1.278474    1.655443   -1.086247
      3          6           0       -0.128762    1.760153   -0.254213
      4          6           0        0.562766    3.017102   -0.219296
      5          6           0        0.080892    4.102952   -0.997925
      6          6           0       -1.036727    3.966787   -1.788330
      7          1           0       -2.598533    2.619733   -2.459753
      8          1           0       -1.806452    0.708618   -1.129797
      9          6           0        0.349511    0.660537    0.527066
     10          6           0        1.718403    3.139963    0.593422
     11          1           0        0.617112    5.048659   -0.957442
     12          1           0       -1.396152    4.803927   -2.380507
     13          6           0        2.172770    2.077021    1.333995
     14          6           0        1.487205    0.836482    1.301814
     15          1           0        2.245493    4.090506    0.623051
     16          1           0        3.060514    2.178179    1.956655
     17          6           0        1.036727   -3.966787   -1.788330
     18          6           0       -0.080892   -4.102952   -0.997925
     19          6           0       -0.562766   -3.017102   -0.219296
     20          6           0        0.128762   -1.760153   -0.254213
     21          6           0        1.278474   -1.655443   -1.086247
     22          6           0        1.718403   -2.726698   -1.830828
     23          1           0       -2.245493   -4.090506    0.623051
     24          1           0        1.396152   -4.803927   -2.380507
     25          1           0       -0.617112   -5.048659   -0.957442
     26          6           0       -1.718403   -3.139963    0.593422
     27          6           0       -0.349511   -0.660537    0.527066
     28          1           0        1.806452   -0.708618   -1.129797
     29          1           0        2.598533   -2.619733   -2.459753
     30          6           0       -1.487205   -0.836482    1.301814
     31          6           0       -2.172770   -2.077021    1.333995
     32          1           0       -3.060514   -2.178179    1.956655
     33          8           0        1.933238   -0.224087    2.043321
     34          1           0        2.730560    0.045273    2.524476
     35          8           0       -1.933238    0.224087    2.043321
     36          1           0       -2.730560   -0.045273    2.524476
 ---------------------------------------------------------------------
 Rotational constants (GHZ):           0.4748167           0.2160470           0.2091350
 Standard basis: 6-31G(d) (6D, 7F)
 There are   179 symmetry adapted cartesian basis functions of A   symmetry.
 There are   179 symmetry adapted cartesian basis functions of B   symmetry.
 There are   179 symmetry adapted basis functions of A   symmetry.
 There are   179 symmetry adapted basis functions of B   symmetry.
   358 basis functions,   672 primitive gaussians,   358 cartesian basis functions
    75 alpha electrons       75 beta electrons
       nuclear repulsion energy      1672.1970140622 Hartrees.
 NAtoms=   36 NActive=   36 NUniq=   18 SFac= 4.00D+00 NAtFMM=   60 NAOKFM=F Big=F
 Integral buffers will be    131072 words long.
 Regular integral format.
 Two-electron integral symmetry is turned on.
 One-electron integrals computed using PRISM.
 NBasis=   358 RedAO= T EigKep=  2.32D-04  NBF=   179   179
 NBsUse=   358 1.00D-06 EigRej= -1.00D+00 NBFU=   179   179
 ExpMin= 1.61D-01 ExpMax= 5.48D+03 ExpMxC= 8.25D+02 IAcc=3 IRadAn=         5 AccDes= 0.00D+00
 Harris functional with IExCor=  402 and IRadAn=       5 diagonalized for initial guess.
 HarFok:  IExCor=  402 AccDes= 0.00D+00 IRadAn=         5 IDoV= 1 UseB2=F ITyADJ=14
 ICtDFT=  3500011 ScaDFX=  1.000000  1.000000  1.000000  1.000000
 FoFCou: FMM=F IPFlag=           0 FMFlag=      100000 FMFlg1=           0
         NFxFlg=           0 DoJE=T BraDBF=F KetDBF=T FulRan=T
         wScrn=  0.000000 ICntrl=       500 IOpCl=  0 I1Cent=   200000004 NGrid=           0
         NMat0=    1 NMatS0=      1 NMatT0=    0 NMatD0=    1 NMtDS0=    0 NMtDT0=    0
 Petite list used in FoFCou.
 Initial guess orbital symmetries:
       Occupied  (B) (A) (B) (A) (B) (A) (B) (A) (B) (A) (B) (A)
                 (B) (A) (B) (A) (A) (B) (A) (B) (A) (B) (A) (B)
                 (A) (B) (A) (B) (A) (B) (A) (B) (A) (B) (A) (B)
                 (B) (A) (A) (B) (B) (A) (A) (B) (A) (B) (A) (B)
                 (A) (B) (A) (B) (B) (A) (A) (B) (A) (A) (B) (B)
                 (A) (B) (A) (A) (B) (B) (A) (B) (A) (A) (B) (A)
                 (B) (A) (B)
       Virtual   (A) (B) (A) (B) (A) (B) (A) (B) (B) (A) (B) (A)
                 (B) (A) (A) (B) (B) (A) (B) (A) (B) (A) (A) (B)
                 (B) (B) (A) (A) (B) (A) (B) (B) (A) (A) (B) (A)
                 (B) (A) (B) (A) (B) (A) (B) (A) (B) (A) (B) (A)
                 (B) (A) (B) (A) (A) (A) (B) (B) (B) (A) (B) (A)
                 (A) (B) (B) (A) (A) (B) (A) (B) (A) (A) (B) (B)
                 (A) (B) (A) (B) (A) (B) (A) (B) (A) (B) (B) (A)
                 (B) (A) (B) (A) (B) (A) (B) (A) (B) (B) (A) (A)
                 (B) (B) (A) (B) (A) (B) (A) (B) (A) (B) (A) (A)
                 (B) (B) (A) (A) (B) (B) (A) (A) (B) (A) (B) (A)
                 (B) (B) (A) (B) (A) (A) (B) (A) (B) (A) (B) (A)
                 (B) (B) (A) (A) (B) (B) (A) (A) (B) (B) (A) (A)
                 (B) (A) (B) (A) (A) (B) (B) (B) (A) (A) (B) (A)
                 (B) (B) (A) (B) (A) (A) (B) (A) (B) (A) (B) (A)
                 (A) (B) (B) (A) (A) (B) (A) (B) (B) (A) (B) (A)
                 (A) (B) (B) (A) (B) (A) (B) (A) (A) (B) (A) (B)
                 (A) (B) (A) (B) (A) (B) (B) (A) (A) (B) (A) (B)
                 (A) (B) (A) (B) (A) (A) (B) (A) (B) (A) (B) (A)
                 (B) (B) (B) (A) (B) (A) (B) (A) (A) (B) (A) (B)
                 (A) (B) (B) (A) (B) (A) (B) (A) (A) (B) (B) (A)
                 (A) (B) (B) (A) (B) (A) (B) (A) (B) (A) (B) (A)
                 (B) (A) (B) (A) (B) (A) (B) (A) (B) (A) (B) (B)
                 (A) (A) (B) (B) (A) (B) (A) (A) (B) (A) (B) (A)
                 (B) (A) (B) (A) (B) (A) (B)
 The electronic state of the initial guess is 1-A.
 Requested convergence on RMS density matrix=1.00D-08 within 128 cycles.
 Requested convergence on MAX density matrix=1.00D-06.
 Requested convergence on             energy=1.00D-06.
 No special actions if energy rises.
 Integral accuracy reduced to 1.0D-05 until final iterations.
 Initial convergence to 1.0D-05 achieved.  Increase integral accuracy.
 SCF Done:  E(RB3LYP) =  -921.015620329     A.U. after   14 cycles
            NFock= 14  Conv=0.63D-08     -V/T= 2.0095
 DoSCS=F DFT=T ScalE2(SS,OS)=  1.000000  1.000000
 ExpMin= 1.61D-01 ExpMax= 5.48D+03 ExpMxC= 8.25D+02 IAcc=3 IRadAn=         5 AccDes= 0.00D+00
 HarFok:  IExCor=  205 AccDes= 0.00D+00 IRadAn=         5 IDoV=-2 UseB2=F ITyADJ=14
 ICtDFT= 12500011 ScaDFX=  1.000000  1.000000  1.000000  1.000000
 GSVD:  LWork=        -660 too small for GESVD, short by        2750 words or        2750 for optimal perf.
 Range of M.O.s used for correlation:    23   358
 NBasis=   358 NAE=    75 NBE=    75 NFC=    22 NFV=     0
 NROrb=    336 NOA=    53 NOB=    53 NVA=   283 NVB=   283
 Orbital symmetries:
       Occupied  (B) (A) (B) (A) (A) (B) (A) (B) (B) (A) (A) (B)
                 (A) (B) (B) (A) (A) (B) (B) (A) (B) (A) (A) (B)
                 (A) (B) (A) (B) (A) (B) (A) (B) (A) (B) (A) (B)
                 (A) (B) (A) (B) (A) (B) (A) (B) (A) (B) (A) (B)
                 (A) (B) (A) (B) (A) (B) (A) (B) (A) (B) (A) (A)
                 (B) (B) (A) (B) (A) (B) (A) (B) (A) (A) (B) (B)
                 (A) (A) (B)
       Virtual   (A) (B) (A) (B) (A) (B) (A) (B) (B) (A) (A) (B)
                 (B) (A) (B) (A) (B) (A) (B) (A) (A) (B) (A) (B)
                 (B) (A) (B) (A) (B) (A) (B) (B) (A) (B) (A) (A)
                 (B) (A) (B) (A) (B) (A) (B) (A) (B) (A) (B) (A)
                 (B) (A) (A) (B) (B) (A) (A) (B) (B) (A) (B) (A)
                 (A) (B) (A) (B) (B) (A) (A) (A) (B) (B) (A) (A)
                 (B) (B) (A) (A) (B) (B) (A) (B) (A) (B) (B) (A)
                 (B) (A) (B) (A) (B) (A) (B) (A) (B) (B) (A) (A)
                 (B) (A) (B) (B) (A) (B) (A) (A) (B) (B) (A) (A)
                 (B) (B) (A) (A) (B) (B) (A) (B) (A) (A) (A) (B)
                 (B) (B) (A) (B) (A) (A) (B) (B) (A) (A) (B) (A)
                 (B) (B) (A) (A) (B) (B) (A) (A) (B) (A) (B) (B)
                 (A) (A) (B) (A) (B) (B) (A) (A) (B) (B) (A) (B)
                 (A) (B) (A) (B) (A) (A) (B) (A) (B) (A) (A) (A)
                 (B) (B) (B) (A) (B) (A) (A) (B) (B) (A) (A) (B)
                 (B) (A) (B) (A) (B) (A) (A) (B) (A) (B) (A) (B)
                 (A) (B) (B) (A) (B) (A) (B) (A) (A) (B) (A) (B)
                 (B) (A) (A) (B) (A) (A) (B) (A) (B) (B) (A) (B)
                 (A) (B) (B) (A) (B) (A) (B) (A) (A) (B) (B) (A)
                 (A) (B) (B) (A) (B) (A) (B) (A) (A) (B) (B) (A)
                 (A) (B) (B) (A) (B) (A) (B) (A) (B) (A) (B) (A)
                 (B) (A) (B) (B) (A) (A) (B) (A) (B) (A) (B) (B)
                 (A) (A) (B) (A) (B) (B) (A) (A) (B) (A) (B) (A)
                 (B) (A) (B) (A) (B) (A) (B)
    64 initial guesses have been made.
 Convergence on wavefunction:    0.001000000000000
 Iteration     1 Dimension    64 NMult     0 NNew     64
 CISAX will form    64 AO SS matrices at one time.
 New state      2 was old state      3
 New state      3 was old state      4
 New state      4 was old state      2
 New state      5 was old state      6
 New state      6 was old state      5
 New state      7 was old state     10
 New state      8 was old state      7
 New state      9 was old state     11
 New state     10 was old state     12
 New state     11 was old state     15
 New state     12 was old state     19
 New state     13 was old state     16
 New state     14 was old state     13
 New state     15 was old state     14
 New state     16 was old state     21
 Iteration     2 Dimension    96 NMult    64 NNew     32
 New state      3 was old state      4
 New state      4 was old state      3
 Iteration     3 Dimension   128 NMult    96 NNew     32
 Iteration     4 Dimension   158 NMult   128 NNew     30
 New state     14 was old state     15
 New state     15 was old state     14
 Iteration     5 Dimension   178 NMult   158 NNew     20
 Iteration     6 Dimension   184 NMult   178 NNew      6
 Iteration     7 Dimension   186 NMult   184 NNew      2
 ***********************************************************************
 Excited states from <AA,BB:AA,BB> singles matrix:
 ***********************************************************************
 
 Ground to excited state transition densities written to RWF  633
 Ground to excited state transition electric dipole moments (Au):
       state          X           Y           Z        Dip. S.      Osc.
         1         0.3738      0.8675      0.0000      0.8922      0.0832
         2        -0.0000     -0.0000     -0.0130      0.0002      0.0000
         3        -0.0000     -0.0000     -0.3422      0.1171      0.0118
         4        -0.5584     -0.7376      0.0000      0.8559      0.0870
         5        -0.1451     -0.5401      0.0000      0.3128      0.0344
         6         0.0000     -0.0000      0.0148      0.0002      0.0000
         7         0.0000     -0.0000      0.1399      0.0196      0.0023
         8         0.2052      0.0528      0.0000      0.0449      0.0053
         9        -0.0000      0.0000     -0.0504      0.0025      0.0003
        10        -0.2502      0.2958      0.0000      0.1501      0.0181
        11        -0.4416      0.6325      0.0000      0.5951      0.0796
        12        -0.0000      0.0000     -0.7776      0.6046      0.0823
        13        -0.0185      0.8180     -0.0000      0.6694      0.0928
        14        -0.9894      0.8555     -0.0000      1.7107      0.2409
        15         0.0000     -0.0000     -0.4902      0.2403      0.0339
        16        -0.0000      0.0000      0.1817      0.0330      0.0047
 Ground to excited state transition velocity dipole moments (Au):
       state          X           Y           Z        Dip. S.      Osc.
         1        -0.0550     -0.1290     -0.0000      0.0197      0.0937
         2         0.0000      0.0000     -0.0012      0.0000      0.0000
         3         0.0000      0.0000      0.0456      0.0021      0.0091
         4         0.0850      0.1296     -0.0000      0.0240      0.1051
         5         0.0290      0.0958      0.0000      0.0100      0.0405
         6        -0.0000      0.0000      0.0007      0.0000      0.0000
         7        -0.0000      0.0000     -0.0273      0.0007      0.0028
         8        -0.0383     -0.0134     -0.0000      0.0016      0.0062
         9         0.0000     -0.0000      0.0142      0.0002      0.0008
        10         0.0378     -0.0453      0.0000      0.0035      0.0128
        11         0.0811     -0.1243      0.0000      0.0220      0.0732
        12         0.0000     -0.0000      0.1511      0.0228      0.0746
        13         0.0086     -0.1767      0.0000      0.0313      0.1003
        14         0.2063     -0.1764      0.0000      0.0737      0.2326
        15        -0.0000      0.0000      0.1058      0.0112      0.0353
        16        -0.0000     -0.0000     -0.0424      0.0018      0.0057
 Ground to excited state transition magnetic dipole moments (Au):
       state          X           Y           Z
         1        -0.0954     -0.0350     -0.0000
         2        -0.0000     -0.0000      0.0009
         3        -0.0000     -0.0000     -0.7788
         4         0.2639     -0.1694     -0.0000
         5        -0.1754      0.0710      0.0000
         6        -0.0000     -0.0000      0.0050
         7        -0.0000     -0.0000      0.2368
         8        -0.1702      0.0579     -0.0000
         9        -0.0000      0.0000     -0.2290
        10         0.2178     -0.0675      0.0000
        11         0.8152     -0.2571      0.0000
        12         0.0000     -0.0000     -1.1160
        13         0.6422     -0.2902     -0.0000
        14         1.0053     -0.2107     -0.0000
        15        -0.0000      0.0000     -0.5871
        16         0.0000     -0.0000      0.1291
 Ground to excited state transition velocity quadrupole moments (Au):
       state          XX          YY          ZZ          XY          XZ          YZ
         1         0.0000     -0.0000     -0.0000     -0.0000     -0.1585      0.0822
         2        -0.0057      0.0078      0.0004      0.0319     -0.0000     -0.0000
         3         0.1203      0.8194     -0.0183      0.5172     -0.0000      0.0000
         4         0.0000     -0.0000     -0.0000     -0.0000      0.1145      0.0088
         5        -0.0000     -0.0000      0.0000     -0.0000      0.0386     -0.1605
         6        -0.0703      0.6152     -0.0143      0.1141      0.0000     -0.0000
         7        -0.0245     -0.0379     -0.0026     -0.1228      0.0000     -0.0000
         8         0.0000     -0.0000     -0.0000     -0.0000     -0.0217     -0.0793
         9        -0.0056     -0.0704     -0.0061     -0.0024      0.0000      0.0000
        10         0.0000     -0.0000      0.0000     -0.0000      0.0190      0.2875
        11         0.0000      0.0000      0.0000     -0.0000     -0.0866      0.4590
        12         0.1609     -0.9569     -0.0457      0.5181      0.0000      0.0000
        13         0.0000     -0.0000      0.0000      0.0000     -0.3490      0.2152
        14         0.0000      0.0000     -0.0000      0.0000      0.0193      1.0472
        15         0.1463     -0.3110     -0.0088      0.5523      0.0000     -0.0000
        16        -0.0217      0.5863     -0.0986      0.0322     -0.0000      0.0000
 <0|del|b> * <b|rxdel|0> + <0|del|b> * <b|delr+rdel|0>
 Rotatory Strengths (R) in cgs (10**-40 erg-esu-cm/Gauss)
       state          XX          YY          ZZ    R(velocity)    E-M Angle
         1       -40.2704      1.8378     87.7792     16.4489       46.77
         2        -0.0985      0.0934     -0.0000     -0.0017       90.00
         3       -27.8129   -137.7464     -0.0000    -55.1865       90.00
         4       -85.3353     53.7806     33.8184      0.7546       89.42
         5         6.6513    -20.8719     21.5475      2.4423       84.82
         6         0.1750     -0.1604      0.0000      0.0049       90.00
         7        -6.2486    -19.7016      0.0000     -8.6500       90.00
         8        -2.1327     19.1690      6.0104      7.6822       38.02
         9        -6.4772     -6.3410     -0.0000     -4.2727       90.00
        10         7.6750     37.3731     -0.8546     14.7312       32.95
        11        37.3727    182.1769    126.2568    115.2688       39.38
        12      -156.5202   -427.7927     -0.0000   -194.7710       90.00
        13       -17.6702     12.5101    198.2201     64.3533       62.90
        14        67.9223    708.9685     42.0288    272.9732       28.69
        15        -6.1670   -201.7550     -0.0000    -69.3073       90.00
        16       -11.4179     -6.8618      0.0000     -6.0932       90.00
 1/2[<0|r|b>*<b|rxdel|0> + (<0|rxdel|b>*<b|r|0>)*]
 Rotatory Strengths (R) in cgs (10**-40 erg-esu-cm/Gauss)
       state          XX          YY          ZZ     R(length)
         1        25.2252     21.4641      0.0000     15.5631
         2        -0.0000     -0.0000      0.0078      0.0026
         3        -0.0000     -0.0000   -188.5030    -62.8343
         4       104.2262    -88.3677      0.0000      5.2862
         5       -17.9978     27.1116     -0.0000      3.0379
         6         0.0000     -0.0000     -0.0522     -0.0174
         7         0.0000     -0.0000    -23.4344     -7.8115
         8        24.7031     -2.1625      0.0000      7.5135
         9        -0.0000     -0.0000     -8.1557     -2.7186
        10        38.5281     14.1243     -0.0000     17.5508
        11       254.6113    115.0063     -0.0000    123.2059
        12         0.0000      0.0000   -613.6698   -204.5566
        13         8.3869    167.8524     -0.0000     58.7464
        14       703.3696    127.4672     -0.0000    276.9456
        15         0.0000      0.0000   -203.5494    -67.8498
        16         0.0000      0.0000    -16.5835     -5.5278
  1/2[<0|del|b>*<b|r|0> + (<0|r|b>*<b|del|0>)*] (Au)
       state          X           Y           Z        Dip. S.   Osc.(frdel)
         1        -0.0206     -0.1119     -0.0000      0.1324      0.0883
         2        -0.0000     -0.0000      0.0000     -0.0000     -0.0000
         3        -0.0000     -0.0000     -0.0156      0.0156      0.0104
         4        -0.0475     -0.0956     -0.0000      0.1431      0.0954
         5        -0.0042     -0.0517      0.0000      0.0560      0.0373
         6        -0.0000     -0.0000      0.0000     -0.0000     -0.0000
         7        -0.0000     -0.0000     -0.0038      0.0038      0.0025
         8        -0.0079     -0.0007     -0.0000      0.0086      0.0057
         9        -0.0000     -0.0000     -0.0007      0.0007      0.0005
        10        -0.0095     -0.0134      0.0000      0.0229      0.0152
        11        -0.0358     -0.0786      0.0000      0.1144      0.0763
        12        -0.0000     -0.0000     -0.1175      0.1175      0.0783
        13        -0.0002     -0.1446     -0.0000      0.1447      0.0965
        14        -0.2041     -0.1509     -0.0000      0.3551      0.2367
        15        -0.0000     -0.0000     -0.0519      0.0519      0.0346
        16         0.0000     -0.0000     -0.0077      0.0077      0.0051

 Excitation energies and oscillator strengths:
 
 Excited State   1:      Singlet-B      3.8060 eV  325.76 nm  f=0.0832  <S**2>=0.000
      74 -> 77         0.18018
      75 -> 76         0.67530
 This state for optimization and/or second-order correction.
 Total Energy, E(TD-HF/TD-DFT) =  -920.875753170    
 Copying the excited state density for this state as the 1-particle RhoCI density.
 
 Excited State   2:      Singlet-A      3.8875 eV  318.93 nm  f=0.0000  <S**2>=0.000
      74 -> 76         0.49445
      75 -> 77         0.50166
 
 Excited State   3:      Singlet-A      4.1253 eV  300.55 nm  f=0.0118  <S**2>=0.000
      72 -> 77         0.11078
      72 -> 79        -0.10849
      73 -> 76        -0.10877
      73 -> 78        -0.12373
      74 -> 76        -0.45782
      74 -> 78         0.10016
      75 -> 77         0.46028
      75 -> 79         0.10828
 
 Excited State   4:      Singlet-B      4.1485 eV  298.87 nm  f=0.0870  <S**2>=0.000
      74 -> 77         0.64225
      75 -> 76        -0.13795
      75 -> 78         0.16580
 
 Excited State   5:      Singlet-B      4.4929 eV  275.95 nm  f=0.0344  <S**2>=0.000
      72 -> 76         0.45303
      73 -> 77        -0.24364
      74 -> 77         0.18935
      74 -> 79        -0.17929
      75 -> 76        -0.11452
      75 -> 78        -0.38493
 
 Excited State   6:      Singlet-A      4.5173 eV  274.47 nm  f=0.0000  <S**2>=0.000
      72 -> 77        -0.24431
      73 -> 76         0.44845
      74 -> 76        -0.16866
      74 -> 78        -0.26700
      75 -> 77         0.13750
      75 -> 79        -0.33920
 
 Excited State   7:      Singlet-A      4.7885 eV  258.92 nm  f=0.0023  <S**2>=0.000
      72 -> 77         0.53997
      73 -> 76         0.43545
      75 -> 79         0.10729
 
 Excited State   8:      Singlet-B      4.7935 eV  258.65 nm  f=0.0053  <S**2>=0.000
      72 -> 76         0.43507
      73 -> 77         0.53615
      75 -> 78         0.13553
 
 Excited State   9:      Singlet-A      4.8951 eV  253.28 nm  f=0.0003  <S**2>=0.000
      74 -> 78         0.51161
      75 -> 79        -0.48143
 
 Excited State  10:      Singlet-B      4.9151 eV  252.25 nm  f=0.0181  <S**2>=0.000
      73 -> 77         0.16176
      74 -> 79         0.52431
      75 -> 78        -0.43528
 
 Excited State  11:      Singlet-B      5.4574 eV  227.18 nm  f=0.0796  <S**2>=0.000
      70 -> 77         0.15434
      71 -> 76        -0.41340
      73 -> 77         0.11121
      74 -> 79        -0.12181
      74 -> 81         0.12226
      75 -> 80         0.49158
 
 Excited State  12:      Singlet-A      5.5533 eV  223.26 nm  f=0.0823  <S**2>=0.000
      70 -> 76        -0.29217
      71 -> 77         0.36749
      72 -> 77         0.16496
      73 -> 76        -0.12427
      74 -> 78        -0.16005
      74 -> 80         0.28214
      75 -> 79        -0.12383
      75 -> 81         0.32547
 
 Excited State  13:      Singlet-B      5.6614 eV  219.00 nm  f=0.0928  <S**2>=0.000
      70 -> 77         0.10588
      71 -> 76         0.50675
      72 -> 78        -0.12699
      74 -> 81        -0.12488
      75 -> 80         0.39758
 
 Excited State  14:      Singlet-B      5.7478 eV  215.71 nm  f=0.2409  <S**2>=0.000
      72 -> 76        -0.14410
      72 -> 78         0.43662
      73 -> 77         0.16187
      73 -> 79        -0.40559
      74 -> 79        -0.19189
      75 -> 78        -0.15856
      75 -> 80        -0.12255
 
 Excited State  15:      Singlet-A      5.7491 eV  215.66 nm  f=0.0339  <S**2>=0.000
      71 -> 77        -0.10845
      72 -> 79        -0.23358
      73 -> 78         0.42584
      74 -> 80        -0.40237
      75 -> 81         0.24388
 
 Excited State  16:      Singlet-A      5.7649 eV  215.07 nm  f=0.0047  <S**2>=0.000
      70 -> 76         0.13606
      71 -> 77         0.16833
      72 -> 79        -0.28097
      73 -> 78         0.40898
      74 -> 80         0.31282
      75 -> 81        -0.31119
 SavETr:  write IOETrn=   770 NScale= 10 NData=  16 NLR=1 NState=   16 LETran=     298.

 **********************************************************************

            Population analysis using the SCF Density.

 **********************************************************************

 Orbital symmetries:
       Occupied  (B) (A) (B) (A) (A) (B) (A) (B) (B) (A) (A) (B)
                 (A) (B) (B) (A) (A) (B) (B) (A) (B) (A) (A) (B)
                 (A) (B) (A) (B) (A) (B) (A) (B) (A) (B) (A) (B)
                 (A) (B) (A) (B) (A) (B) (A) (B) (A) (B) (A) (B)
                 (A) (B) (A) (B) (A) (B) (A) (B) (A) (B) (A) (A)
                 (B) (B) (A) (B) (A) (B) (A) (B) (A) (A) (B) (B)
                 (A) (A) (B)
       Virtual   (A) (B) (A) (B) (A) (B) (A) (B) (B) (A) (A) (B)
                 (B) (A) (B) (A) (B) (A) (B) (A) (A) (B) (A) (B)
                 (B) (A) (B) (A) (B) (A) (B) (B) (A) (B) (A) (A)
                 (B) (A) (B) (A) (B) (A) (B) (A) (B) (A) (B) (A)
                 (B) (A) (A) (B) (B) (A) (A) (B) (B) (A) (B) (A)
                 (A) (B) (A) (B) (B) (A) (A) (A) (B) (B) (A) (A)
                 (B) (B) (A) (A) (B) (B) (A) (B) (A) (B) (B) (A)
                 (B) (A) (B) (A) (B) (A) (B) (A) (B) (B) (A) (A)
                 (B) (A) (B) (B) (A) (B) (A) (A) (B) (B) (A) (A)
                 (B) (B) (A) (A) (B) (B) (A) (B) (A) (A) (A) (B)
                 (B) (B) (A) (B) (A) (A) (B) (B) (A) (A) (B) (A)
                 (B) (B) (A) (A) (B) (B) (A) (A) (B) (A) (B) (B)
                 (A) (A) (B) (A) (B) (B) (A) (A) (B) (B) (A) (B)
                 (A) (B) (A) (B) (A) (A) (B) (A) (B) (A) (A) (A)
                 (B) (B) (B) (A) (B) (A) (A) (B) (B) (A) (A) (B)
                 (B) (A) (B) (A) (B) (A) (A) (B) (A) (B) (A) (B)
                 (A) (B) (B) (A) (B) (A) (B) (A) (A) (B) (A) (B)
                 (B) (A) (A) (B) (A) (A) (B) (A) (B) (B) (A) (B)
                 (A) (B) (B) (A) (B) (A) (B) (A) (A) (B) (B) (A)
                 (A) (B) (B) (A) (B) (A) (B) (A) (A) (B) (B) (A)
                 (A) (B) (B) (A) (B) (A) (B) (A) (B) (A) (B) (A)
                 (B) (A) (B) (B) (A) (A) (B) (A) (B) (A) (B) (B)
                 (A) (A) (B) (A) (B) (B) (A) (A) (B) (A) (B) (A)
                 (B) (A) (B) (A) (B) (A) (B)
 The electronic state is 1-A.
 Alpha  occ. eigenvalues --  -19.17468 -19.17468 -10.24579 -10.24579 -10.19209
 Alpha  occ. eigenvalues --  -10.19209 -10.19132 -10.19132 -10.19067 -10.19067
 Alpha  occ. eigenvalues --  -10.18781 -10.18781 -10.18691 -10.18663 -10.18263
 Alpha  occ. eigenvalues --  -10.18263 -10.18126 -10.18126 -10.17999 -10.17999
 Alpha  occ. eigenvalues --  -10.17679 -10.17679  -1.05638  -1.05470  -0.86979
 Alpha  occ. eigenvalues --   -0.85901  -0.81372  -0.80816  -0.78613  -0.75068
 Alpha  occ. eigenvalues --   -0.72930  -0.72896  -0.71989  -0.70225  -0.62940
 Alpha  occ. eigenvalues --   -0.62199  -0.61340  -0.61035  -0.59765  -0.56751
 Alpha  occ. eigenvalues --   -0.54511  -0.54400  -0.51486  -0.49895  -0.49274
 Alpha  occ. eigenvalues --   -0.48717  -0.46385  -0.46253  -0.44117  -0.42946
 Alpha  occ. eigenvalues --   -0.42486  -0.42120  -0.41533  -0.41515  -0.41096
 Alpha  occ. eigenvalues --   -0.39702  -0.39567  -0.39319  -0.38634  -0.36573
 Alpha  occ. eigenvalues --   -0.36022  -0.35757  -0.35196  -0.34128  -0.33960
 Alpha  occ. eigenvalues --   -0.33232  -0.31271  -0.30131  -0.30003  -0.27272
 Alpha  occ. eigenvalues --   -0.26359  -0.22628  -0.22599  -0.20077  -0.19384
 Alpha virt. eigenvalues --   -0.03300  -0.02716   0.00370   0.00850   0.03639
 Alpha virt. eigenvalues --    0.04398   0.07024   0.07073   0.10186   0.10470
 Alpha virt. eigenvalues --    0.11260   0.11272   0.11871   0.11999   0.14423
 Alpha virt. eigenvalues --    0.15414   0.17511   0.17547   0.18776   0.18963
 Alpha virt. eigenvalues --    0.19902   0.19972   0.20667   0.21090   0.22630
 Alpha virt. eigenvalues --    0.24101   0.26346   0.27497   0.27892   0.29424
 Alpha virt. eigenvalues --    0.30895   0.31618   0.32206   0.33196   0.33369
 Alpha virt. eigenvalues --    0.34560   0.36573   0.36663   0.37826   0.39345
 Alpha virt. eigenvalues --    0.41070   0.46491   0.49162   0.49453   0.50153
 Alpha virt. eigenvalues --    0.51279   0.52372   0.52376   0.52562   0.53388
 Alpha virt. eigenvalues --    0.54003   0.54062   0.54939   0.55390   0.55444
 Alpha virt. eigenvalues --    0.55951   0.56660   0.57204   0.57379   0.59288
 Alpha virt. eigenvalues --    0.59688   0.60032   0.60641   0.60676   0.61159
 Alpha virt. eigenvalues --    0.61389   0.61752   0.61908   0.62174   0.62951
 Alpha virt. eigenvalues --    0.62992   0.64075   0.64265   0.64669   0.65706
 Alpha virt. eigenvalues --    0.66537   0.67025   0.67940   0.68593   0.69366
 Alpha virt. eigenvalues --    0.70691   0.73678   0.75540   0.75556   0.75870
 Alpha virt. eigenvalues --    0.79923   0.80302   0.81604   0.81655   0.82738
 Alpha virt. eigenvalues --    0.83558   0.84391   0.84908   0.85253   0.85268
 Alpha virt. eigenvalues --    0.86362   0.86451   0.86719   0.87257   0.88214
 Alpha virt. eigenvalues --    0.88782   0.89202   0.90921   0.91319   0.91913
 Alpha virt. eigenvalues --    0.94564   0.95037   0.96276   0.97472   0.98741
 Alpha virt. eigenvalues --    1.00042   1.00965   1.01472   1.02569   1.03744
 Alpha virt. eigenvalues --    1.04094   1.05159   1.06062   1.07212   1.07522
 Alpha virt. eigenvalues --    1.09011   1.09831   1.12517   1.14402   1.14448
 Alpha virt. eigenvalues --    1.14981   1.18944   1.20063   1.20876   1.22470
 Alpha virt. eigenvalues --    1.24633   1.24649   1.25878   1.26191   1.27110
 Alpha virt. eigenvalues --    1.27973   1.29417   1.31780   1.33257   1.37993
 Alpha virt. eigenvalues --    1.38561   1.40520   1.41246   1.41953   1.42211
 Alpha virt. eigenvalues --    1.43626   1.45596   1.45848   1.46141   1.47174
 Alpha virt. eigenvalues --    1.47294   1.47730   1.48062   1.48354   1.50323
 Alpha virt. eigenvalues --    1.50581   1.51199   1.51322   1.52334   1.53774
 Alpha virt. eigenvalues --    1.61023   1.66331   1.67306   1.70777   1.75213
 Alpha virt. eigenvalues --    1.75829   1.76206   1.77039   1.78144   1.78592
 Alpha virt. eigenvalues --    1.79493   1.80411   1.83073   1.84229   1.85896
 Alpha virt. eigenvalues --    1.86063   1.87235   1.88724   1.90426   1.90724
 Alpha virt. eigenvalues --    1.92173   1.92977   1.93512   1.93532   1.94856
 Alpha virt. eigenvalues --    1.95773   1.96757   1.97894   1.99260   2.01041
 Alpha virt. eigenvalues --    2.02078   2.03401   2.04370   2.04913   2.06706
 Alpha virt. eigenvalues --    2.06897   2.08356   2.08442   2.14709   2.15245
 Alpha virt. eigenvalues --    2.17295   2.17653   2.20402   2.21162   2.22512
 Alpha virt. eigenvalues --    2.22576   2.25962   2.26490   2.28859   2.29682
 Alpha virt. eigenvalues --    2.29936   2.30665   2.32901   2.34786   2.34939
 Alpha virt. eigenvalues --    2.36089   2.36115   2.36245   2.36310   2.37723
 Alpha virt. eigenvalues --    2.39135   2.42121   2.46460   2.48767   2.51025
 Alpha virt. eigenvalues --    2.53744   2.56098   2.58185   2.60196   2.61903
 Alpha virt. eigenvalues --    2.62310   2.63557   2.64596   2.64751   2.65611
 Alpha virt. eigenvalues --    2.66398   2.67476   2.68687   2.69888   2.75245
 Alpha virt. eigenvalues --    2.75638   2.78491   2.79915   2.80514   2.82428
 Alpha virt. eigenvalues --    2.85013   2.87853   2.89507   2.89823   2.91544
 Alpha virt. eigenvalues --    2.92186   2.97585   3.02230   3.04801   3.08603
 Alpha virt. eigenvalues --    3.16361   3.16539   3.37046   3.39334   3.47267
 Alpha virt. eigenvalues --    3.50782   3.99317   4.04982   4.09351   4.09812
 Alpha virt. eigenvalues --    4.10841   4.11499   4.14462   4.14550   4.16762
 Alpha virt. eigenvalues --    4.16988   4.23687   4.29110   4.31540   4.32927
 Alpha virt. eigenvalues --    4.39879   4.44126   4.45842   4.51120   4.62872
 Alpha virt. eigenvalues --    4.64518   4.86243   4.92315
          Condensed to atoms (all electrons):
               1          2          3          4          5          6
     1  C    4.903143   0.512421   0.001914  -0.038705  -0.018699   0.493533
     2  C    0.512421   5.153714   0.443085  -0.051830  -0.071520  -0.019579
     3  C    0.001914   0.443085   4.761336   0.445978  -0.023419  -0.039785
     4  C   -0.038705  -0.051830   0.445978   4.768319   0.447487  -0.005045
     5  C   -0.018699  -0.071520  -0.023419   0.447487   5.101333   0.518029
     6  C    0.493533  -0.019579  -0.039785  -0.005045   0.518029   4.909898
     7  H    0.356677  -0.037075   0.002685   0.001039   0.004377  -0.042505
     8  H   -0.047521   0.346974  -0.031415   0.005640   0.000433   0.004476
     9  C    0.008558  -0.097303   0.415196  -0.012338   0.015264  -0.000660
    10  C   -0.000782   0.016843  -0.018103   0.426072  -0.093943   0.008480
    11  H    0.004692   0.000489   0.004343  -0.043089   0.353581  -0.045806
    12  H   -0.041268   0.004196   0.000986   0.002809  -0.037486   0.356427
    13  C    0.000073  -0.001377  -0.055498   0.006895   0.009322  -0.000405
    14  C   -0.000371   0.014122   0.021874  -0.058876  -0.000943   0.000056
    15  H    0.000017  -0.000202   0.004250  -0.036506  -0.008052   0.000166
    16  H   -0.000000   0.000016   0.001217   0.002049  -0.000206   0.000004
    17  C    0.000000   0.000000  -0.000000   0.000000  -0.000000  -0.000000
    18  C    0.000000   0.000001  -0.000003  -0.000000   0.000000  -0.000000
    19  C   -0.000001  -0.000030  -0.000077   0.000001  -0.000000   0.000000
    20  C    0.000027   0.000112  -0.000648  -0.000077  -0.000003  -0.000000
    21  C   -0.000002   0.000300   0.000112  -0.000030   0.000001   0.000000
    22  C   -0.000000  -0.000002   0.000027  -0.000001   0.000000   0.000000
    23  H    0.000000  -0.000000   0.000000   0.000000  -0.000000  -0.000000
    24  H   -0.000000  -0.000000   0.000000   0.000000   0.000000   0.000000
    25  H   -0.000000  -0.000000  -0.000000   0.000000  -0.000000   0.000000
    26  C   -0.000000  -0.000026   0.000040   0.000000  -0.000000   0.000000
    27  C    0.000694  -0.023938  -0.049072   0.008807  -0.000089  -0.000003
    28  H   -0.000001   0.000003   0.000575  -0.000021  -0.000003   0.000000
    29  H   -0.000000  -0.000000  -0.000000   0.000000   0.000000   0.000000
    30  C    0.000071  -0.001622  -0.004544   0.000050  -0.000010  -0.000001
    31  C   -0.000008  -0.000357   0.000209   0.000005  -0.000000   0.000000
    32  H    0.000000   0.000003  -0.000001  -0.000000   0.000000  -0.000000
    33  O    0.000000  -0.000048   0.002373   0.000203   0.000000  -0.000000
    34  H   -0.000000   0.000006   0.000138  -0.000118  -0.000001   0.000000
    35  O    0.000018   0.002068  -0.001440  -0.000207   0.000002   0.000000
    36  H   -0.000000  -0.000036   0.000022   0.000003  -0.000000   0.000000
               7          8          9         10         11         12
     1  C    0.356677  -0.047521   0.008558  -0.000782   0.004692  -0.041268
     2  C   -0.037075   0.346974  -0.097303   0.016843   0.000489   0.004196
     3  C    0.002685  -0.031415   0.415196  -0.018103   0.004343   0.000986
     4  C    0.001039   0.005640  -0.012338   0.426072  -0.043089   0.002809
     5  C    0.004377   0.000433   0.015264  -0.093943   0.353581  -0.037486
     6  C   -0.042505   0.004476  -0.000660   0.008480  -0.045806   0.356427
     7  H    0.599871  -0.005368  -0.000198   0.000010  -0.000194  -0.004847
     8  H   -0.005368   0.587085  -0.016740  -0.000184   0.000019  -0.000180
     9  C   -0.000198  -0.016740   5.325776  -0.067991  -0.000168   0.000012
    10  C    0.000010  -0.000184  -0.067991   5.146882  -0.008690  -0.000193
    11  H   -0.000194   0.000019  -0.000168  -0.008690   0.608930  -0.005482
    12  H   -0.004847  -0.000180   0.000012  -0.000193  -0.005482   0.600512
    13  C   -0.000001   0.000013  -0.044584   0.446789   0.000283   0.000003
    14  C    0.000003   0.000150   0.444017   0.013853   0.000007  -0.000000
    15  H   -0.000000   0.000002   0.000792   0.349402   0.006674  -0.000012
    16  H   -0.000000   0.000000   0.003996  -0.028016  -0.000012  -0.000000
    17  C    0.000000   0.000000  -0.000003   0.000000   0.000000   0.000000
    18  C    0.000000  -0.000003  -0.000089  -0.000000  -0.000000   0.000000
    19  C    0.000000  -0.000021   0.008807   0.000000   0.000000   0.000000
    20  C   -0.000000   0.000575  -0.049072   0.000040  -0.000000   0.000000
    21  C   -0.000000   0.000003  -0.023938  -0.000026  -0.000000  -0.000000
    22  C   -0.000000  -0.000001   0.000694  -0.000000  -0.000000  -0.000000
    23  H   -0.000000  -0.000000   0.000012  -0.000000   0.000000   0.000000
    24  H   -0.000000  -0.000000   0.000000  -0.000000  -0.000000   0.000000
    25  H   -0.000000   0.000000   0.000001  -0.000000   0.000000  -0.000000
    26  C   -0.000000  -0.000042  -0.000834   0.000000  -0.000000  -0.000000
    27  C   -0.000009   0.015299   0.254648  -0.000834   0.000001   0.000000
    28  H   -0.000000  -0.000005   0.015299  -0.000042   0.000000  -0.000000
    29  H    0.000000  -0.000000  -0.000009  -0.000000  -0.000000  -0.000000
    30  C   -0.000000   0.003134  -0.081181   0.000019   0.000000   0.000000
    31  C   -0.000000   0.000423   0.008452  -0.000000   0.000000   0.000000
    32  H    0.000000   0.000001  -0.000177   0.000000  -0.000000   0.000000
    33  O   -0.000000  -0.000001  -0.059057   0.004784  -0.000000   0.000000
    34  H    0.000000   0.000000   0.007735   0.000870  -0.000000  -0.000000
    35  O   -0.000000  -0.000869  -0.001269   0.000003   0.000000  -0.000000
    36  H   -0.000000   0.000017  -0.000190  -0.000000  -0.000000  -0.000000
              13         14         15         16         17         18
     1  C    0.000073  -0.000371   0.000017  -0.000000   0.000000   0.000000
     2  C   -0.001377   0.014122  -0.000202   0.000016   0.000000   0.000001
     3  C   -0.055498   0.021874   0.004250   0.001217  -0.000000  -0.000003
     4  C    0.006895  -0.058876  -0.036506   0.002049   0.000000  -0.000000
     5  C    0.009322  -0.000943  -0.008052  -0.000206  -0.000000   0.000000
     6  C   -0.000405   0.000056   0.000166   0.000004  -0.000000  -0.000000
     7  H   -0.000001   0.000003  -0.000000  -0.000000   0.000000   0.000000
     8  H    0.000013   0.000150   0.000002   0.000000   0.000000  -0.000003
     9  C   -0.044584   0.444017   0.000792   0.003996  -0.000003  -0.000089
    10  C    0.446789   0.013853   0.349402  -0.028016   0.000000  -0.000000
    11  H    0.000283   0.000007   0.006674  -0.000012   0.000000  -0.000000
    12  H    0.000003  -0.000000  -0.000012  -0.000000   0.000000   0.000000
    13  C    5.188778   0.409128  -0.040118   0.338883   0.000000  -0.000000
    14  C    0.409128   4.691884   0.002869  -0.040631  -0.000001  -0.000010
    15  H   -0.040118   0.002869   0.595177  -0.005372  -0.000000  -0.000000
    16  H    0.338883  -0.040631  -0.005372   0.606963  -0.000000   0.000000
    17  C    0.000000  -0.000001  -0.000000  -0.000000   4.909898   0.518029
    18  C   -0.000000  -0.000010  -0.000000   0.000000   0.518029   5.101333
    19  C    0.000005   0.000050   0.000000  -0.000000  -0.005045   0.447487
    20  C    0.000209  -0.004544   0.000000  -0.000001  -0.039785  -0.023419
    21  C   -0.000357  -0.001622  -0.000000   0.000003  -0.019579  -0.071520
    22  C   -0.000008   0.000071   0.000000   0.000000   0.493533  -0.018699
    23  H    0.000000   0.000000  -0.000000  -0.000000   0.000166  -0.008052
    24  H    0.000000   0.000000   0.000000   0.000000   0.356427  -0.037486
    25  H    0.000000   0.000000   0.000000  -0.000000  -0.045806   0.353581
    26  C   -0.000000   0.000019  -0.000000   0.000000   0.008480  -0.093943
    27  C    0.008452  -0.081181   0.000012  -0.000177  -0.000660   0.015264
    28  H    0.000423   0.003134  -0.000000   0.000001   0.004476   0.000433
    29  H   -0.000000  -0.000000  -0.000000   0.000000  -0.042505   0.004377
    30  C    0.000143  -0.001739   0.000000  -0.000001   0.000056  -0.000943
    31  C    0.000005   0.000143   0.000000  -0.000000  -0.000405   0.009322
    32  H   -0.000000  -0.000001  -0.000000   0.000000   0.000004  -0.000206
    33  O   -0.064720   0.296917  -0.000056  -0.005182   0.000000   0.000002
    34  H   -0.006771  -0.032674  -0.000015   0.007735   0.000000  -0.000000
    35  O    0.000018   0.000286   0.000000   0.000001  -0.000000   0.000000
    36  H   -0.000001  -0.000027   0.000000  -0.000000   0.000000  -0.000001
              19         20         21         22         23         24
     1  C   -0.000001   0.000027  -0.000002  -0.000000   0.000000  -0.000000
     2  C   -0.000030   0.000112   0.000300  -0.000002  -0.000000  -0.000000
     3  C   -0.000077  -0.000648   0.000112   0.000027   0.000000   0.000000
     4  C    0.000001  -0.000077  -0.000030  -0.000001   0.000000   0.000000
     5  C   -0.000000  -0.000003   0.000001   0.000000  -0.000000   0.000000
     6  C    0.000000  -0.000000   0.000000   0.000000  -0.000000   0.000000
     7  H    0.000000  -0.000000  -0.000000  -0.000000  -0.000000  -0.000000
     8  H   -0.000021   0.000575   0.000003  -0.000001  -0.000000  -0.000000
     9  C    0.008807  -0.049072  -0.023938   0.000694   0.000012   0.000000
    10  C    0.000000   0.000040  -0.000026  -0.000000  -0.000000  -0.000000
    11  H    0.000000  -0.000000  -0.000000  -0.000000   0.000000  -0.000000
    12  H    0.000000   0.000000  -0.000000  -0.000000   0.000000   0.000000
    13  C    0.000005   0.000209  -0.000357  -0.000008   0.000000   0.000000
    14  C    0.000050  -0.004544  -0.001622   0.000071   0.000000   0.000000
    15  H    0.000000   0.000000  -0.000000   0.000000  -0.000000   0.000000
    16  H   -0.000000  -0.000001   0.000003   0.000000  -0.000000   0.000000
    17  C   -0.005045  -0.039785  -0.019579   0.493533   0.000166   0.356427
    18  C    0.447487  -0.023419  -0.071520  -0.018699  -0.008052  -0.037486
    19  C    4.768319   0.445978  -0.051830  -0.038705  -0.036506   0.002809
    20  C    0.445978   4.761336   0.443085   0.001914   0.004250   0.000986
    21  C   -0.051830   0.443085   5.153714   0.512421  -0.000202   0.004196
    22  C   -0.038705   0.001914   0.512421   4.903143   0.000017  -0.041268
    23  H   -0.036506   0.004250  -0.000202   0.000017   0.595177  -0.000012
    24  H    0.002809   0.000986   0.004196  -0.041268  -0.000012   0.600512
    25  H   -0.043089   0.004343   0.000489   0.004692   0.006674  -0.005482
    26  C    0.426072  -0.018103   0.016843  -0.000782   0.349402  -0.000193
    27  C   -0.012338   0.415196  -0.097303   0.008558   0.000792   0.000012
    28  H    0.005640  -0.031415   0.346974  -0.047521   0.000002  -0.000180
    29  H    0.001039   0.002685  -0.037075   0.356677  -0.000000  -0.004847
    30  C   -0.058876   0.021874   0.014122  -0.000371   0.002869  -0.000000
    31  C    0.006895  -0.055498  -0.001377   0.000073  -0.040118   0.000003
    32  H    0.002049   0.001217   0.000016  -0.000000  -0.005372  -0.000000
    33  O   -0.000207  -0.001440   0.002068   0.000018   0.000000  -0.000000
    34  H    0.000003   0.000022  -0.000036  -0.000000   0.000000  -0.000000
    35  O    0.000203   0.002373  -0.000048   0.000000  -0.000056   0.000000
    36  H   -0.000118   0.000138   0.000006  -0.000000  -0.000015  -0.000000
              25         26         27         28         29         30
     1  C   -0.000000  -0.000000   0.000694  -0.000001  -0.000000   0.000071
     2  C   -0.000000  -0.000026  -0.023938   0.000003  -0.000000  -0.001622
     3  C   -0.000000   0.000040  -0.049072   0.000575  -0.000000  -0.004544
     4  C    0.000000   0.000000   0.008807  -0.000021   0.000000   0.000050
     5  C   -0.000000  -0.000000  -0.000089  -0.000003   0.000000  -0.000010
     6  C    0.000000   0.000000  -0.000003   0.000000   0.000000  -0.000001
     7  H   -0.000000  -0.000000  -0.000009  -0.000000   0.000000  -0.000000
     8  H    0.000000  -0.000042   0.015299  -0.000005  -0.000000   0.003134
     9  C    0.000001  -0.000834   0.254648   0.015299  -0.000009  -0.081181
    10  C   -0.000000   0.000000  -0.000834  -0.000042  -0.000000   0.000019
    11  H    0.000000  -0.000000   0.000001   0.000000  -0.000000   0.000000
    12  H   -0.000000  -0.000000   0.000000  -0.000000  -0.000000   0.000000
    13  C    0.000000  -0.000000   0.008452   0.000423  -0.000000   0.000143
    14  C    0.000000   0.000019  -0.081181   0.003134  -0.000000  -0.001739
    15  H    0.000000  -0.000000   0.000012  -0.000000  -0.000000   0.000000
    16  H   -0.000000   0.000000  -0.000177   0.000001   0.000000  -0.000001
    17  C   -0.045806   0.008480  -0.000660   0.004476  -0.042505   0.000056
    18  C    0.353581  -0.093943   0.015264   0.000433   0.004377  -0.000943
    19  C   -0.043089   0.426072  -0.012338   0.005640   0.001039  -0.058876
    20  C    0.004343  -0.018103   0.415196  -0.031415   0.002685   0.021874
    21  C    0.000489   0.016843  -0.097303   0.346974  -0.037075   0.014122
    22  C    0.004692  -0.000782   0.008558  -0.047521   0.356677  -0.000371
    23  H    0.006674   0.349402   0.000792   0.000002  -0.000000   0.002869
    24  H   -0.005482  -0.000193   0.000012  -0.000180  -0.004847  -0.000000
    25  H    0.608930  -0.008690  -0.000168   0.000019  -0.000194   0.000007
    26  C   -0.008690   5.146882  -0.067991  -0.000184   0.000010   0.013853
    27  C   -0.000168  -0.067991   5.325776  -0.016740  -0.000198   0.444017
    28  H    0.000019  -0.000184  -0.016740   0.587085  -0.005368   0.000150
    29  H   -0.000194   0.000010  -0.000198  -0.005368   0.599871   0.000003
    30  C    0.000007   0.013853   0.444017   0.000150   0.000003   4.691884
    31  C    0.000283   0.446789  -0.044584   0.000013  -0.000001   0.409128
    32  H   -0.000012  -0.028016   0.003996   0.000000  -0.000000  -0.040631
    33  O    0.000000   0.000003  -0.001269  -0.000869  -0.000000   0.000286
    34  H   -0.000000  -0.000000  -0.000190   0.000017  -0.000000  -0.000027
    35  O   -0.000000   0.004784  -0.059057  -0.000001  -0.000000   0.296917
    36  H   -0.000000   0.000870   0.007735   0.000000   0.000000  -0.032674
              31         32         33         34         35         36
     1  C   -0.000008   0.000000   0.000000  -0.000000   0.000018  -0.000000
     2  C   -0.000357   0.000003  -0.000048   0.000006   0.002068  -0.000036
     3  C    0.000209  -0.000001   0.002373   0.000138  -0.001440   0.000022
     4  C    0.000005  -0.000000   0.000203  -0.000118  -0.000207   0.000003
     5  C   -0.000000   0.000000   0.000000  -0.000001   0.000002  -0.000000
     6  C    0.000000  -0.000000  -0.000000   0.000000   0.000000   0.000000
     7  H   -0.000000   0.000000  -0.000000   0.000000  -0.000000  -0.000000
     8  H    0.000423   0.000001  -0.000001   0.000000  -0.000869   0.000017
     9  C    0.008452  -0.000177  -0.059057   0.007735  -0.001269  -0.000190
    10  C   -0.000000   0.000000   0.004784   0.000870   0.000003  -0.000000
    11  H    0.000000  -0.000000  -0.000000  -0.000000   0.000000  -0.000000
    12  H    0.000000   0.000000   0.000000  -0.000000  -0.000000  -0.000000
    13  C    0.000005  -0.000000  -0.064720  -0.006771   0.000018  -0.000001
    14  C    0.000143  -0.000001   0.296917  -0.032674   0.000286  -0.000027
    15  H    0.000000  -0.000000  -0.000056  -0.000015   0.000000   0.000000
    16  H   -0.000000   0.000000  -0.005182   0.007735   0.000001  -0.000000
    17  C   -0.000405   0.000004   0.000000   0.000000  -0.000000   0.000000
    18  C    0.009322  -0.000206   0.000002  -0.000000   0.000000  -0.000001
    19  C    0.006895   0.002049  -0.000207   0.000003   0.000203  -0.000118
    20  C   -0.055498   0.001217  -0.001440   0.000022   0.002373   0.000138
    21  C   -0.001377   0.000016   0.002068  -0.000036  -0.000048   0.000006
    22  C    0.000073  -0.000000   0.000018  -0.000000   0.000000  -0.000000
    23  H   -0.040118  -0.005372   0.000000   0.000000  -0.000056  -0.000015
    24  H    0.000003  -0.000000  -0.000000  -0.000000   0.000000  -0.000000
    25  H    0.000283  -0.000012   0.000000  -0.000000  -0.000000  -0.000000
    26  C    0.446789  -0.028016   0.000003  -0.000000   0.004784   0.000870
    27  C   -0.044584   0.003996  -0.001269  -0.000190  -0.059057   0.007735
    28  H    0.000013   0.000000  -0.000869   0.000017  -0.000001   0.000000
    29  H   -0.000001  -0.000000  -0.000000  -0.000000  -0.000000   0.000000
    30  C    0.409128  -0.040631   0.000286  -0.000027   0.296917  -0.032674
    31  C    5.188778   0.338883   0.000018  -0.000001  -0.064720  -0.006771
    32  H    0.338883   0.606963   0.000001  -0.000000  -0.005182   0.007735
    33  O    0.000018   0.000001   8.223134   0.243993  -0.000146  -0.000003
    34  H   -0.000001  -0.000000   0.243993   0.373069  -0.000003   0.000000
    35  O   -0.064720  -0.005182  -0.000146  -0.000003   8.223134   0.243993
    36  H   -0.006771   0.007735  -0.000003   0.000000   0.243993   0.373069
 Mulliken charges:
               1
     1  C   -0.134480
     2  C   -0.189409
     3  C    0.117645
     4  C    0.131486
     5  C   -0.195456
     6  C   -0.137282
     7  H    0.125536
     8  H    0.138107
     9  C   -0.053457
    10  C   -0.195243
    11  H    0.124423
    12  H    0.124522
    13  C   -0.195583
    14  C    0.324038
    15  H    0.130973
    16  H    0.118732
    17  C   -0.137282
    18  C   -0.195456
    19  C    0.131486
    20  C    0.117645
    21  C   -0.189409
    22  C   -0.134480
    23  H    0.130973
    24  H    0.124522
    25  H    0.124423
    26  C   -0.195243
    27  C   -0.053457
    28  H    0.138107
    29  H    0.125536
    30  C    0.324038
    31  C   -0.195583
    32  H    0.118732
    33  O   -0.640801
    34  H    0.406249
    35  O   -0.640801
    36  H    0.406249
 Sum of Mulliken charges =  -0.00000
 Mulliken charges with hydrogens summed into heavy atoms:
               1
     1  C   -0.008944
     2  C   -0.051302
     3  C    0.117645
     4  C    0.131486
     5  C   -0.071033
     6  C   -0.012760
     9  C   -0.053457
    10  C   -0.064270
    13  C   -0.076851
    14  C    0.324038
    17  C   -0.012760
    18  C   -0.071033
    19  C    0.131486
    20  C    0.117645
    21  C   -0.051302
    22  C   -0.008944
    26  C   -0.064270
    27  C   -0.053457
    30  C    0.324038
    31  C   -0.076851
    33  O   -0.234552
    35  O   -0.234552
 Electronic spatial extent (au):  <R**2>=           5932.1068
 Charge=             -0.0000 electrons
 Dipole moment (field-independent basis, Debye):
    X=             -0.0000    Y=              0.0000    Z=              1.3779  Tot=              1.3779
 Quadrupole moment (field-independent basis, Debye-Ang):
   XX=           -106.5385   YY=           -116.0569   ZZ=           -118.5090
   XY=              7.4267   XZ=              0.0000   YZ=              0.0000
 Traceless Quadrupole moment (field-independent basis, Debye-Ang):
   XX=              7.1629   YY=             -2.3554   ZZ=             -4.8075
   XY=              7.4267   XZ=              0.0000   YZ=              0.0000
 Octapole moment (field-independent basis, Debye-Ang**2):
  XXX=              0.0000  YYY=              0.0000  ZZZ=             42.5715  XYY=              0.0000
  XXY=             -0.0000  XXZ=             45.1404  XZZ=              0.0000  YZZ=             -0.0000
  YYZ=            -16.5565  XYZ=             28.5152
 Hexadecapole moment (field-independent basis, Debye-Ang**3):
 XXXX=          -1448.4481 YYYY=          -4740.8980 ZZZZ=          -1339.4807 XXXY=            -38.6616
 XXXZ=              0.0000 YYYX=             26.3668 YYYZ=              0.0000 ZZZX=              0.0000
 ZZZY=             -0.0000 XXYY=          -1076.2918 XXZZ=           -341.0644 YYZZ=          -1063.9027
 XXYZ=              0.0000 YYXZ=             -0.0000 ZZXY=            -47.6343
 N-N= 1.672197014062D+03 E-N=-5.484613529114D+03  KE= 9.123223099602D+02
 Symmetry A    KE= 4.575956708010D+02
 Symmetry B    KE= 4.547266391592D+02
 Unable to Open any file for archive entry.
 1\1\GINC-CCC047\SP\RB3LYP TD-FC\6-31G(d)\C20H14O2\ROOT\20-Feb-2025\0\\
 # td=(nstat=16) b3lyp/6-31g(d)\\binol | No.2\\0,1\C,0,-1.718403,2.7266
 98,-1.830828\C,0,-1.278474,1.655443,-1.086247\C,0,-0.128762,1.760153,-
 0.254213\C,0,0.562766,3.017102,-0.219296\C,0,0.080892,4.102952,-0.9979
 25\C,0,-1.036727,3.966787,-1.78833\H,0,-2.598533,2.619733,-2.459753\H,
 0,-1.806452,0.708618,-1.129797\C,0,0.349511,0.660537,0.527066\C,0,1.71
 8403,3.139963,0.593422\H,0,0.617112,5.048659,-0.957442\H,0,-1.396152,4
 .803927,-2.380507\C,0,2.17277,2.077021,1.333995\C,0,1.487205,0.836482,
 1.301814\H,0,2.245493,4.090506,0.623051\H,0,3.060514,2.178179,1.956655
 \C,0,1.036727,-3.966787,-1.78833\C,0,-0.080892,-4.102952,-0.997925\C,0
 ,-0.562766,-3.017102,-0.219296\C,0,0.128762,-1.760153,-0.254213\C,0,1.
 278474,-1.655443,-1.086247\C,0,1.718403,-2.726698,-1.830828\H,0,-2.245
 493,-4.090506,0.623051\H,0,1.396152,-4.803927,-2.380507\H,0,-0.617112,
 -5.048659,-0.957442\C,0,-1.718403,-3.139963,0.593422\C,0,-0.349511,-0.
 660537,0.527066\H,0,1.806452,-0.708618,-1.129797\H,0,2.598533,-2.61973
 3,-2.459753\C,0,-1.487205,-0.836482,1.301814\C,0,-2.17277,-2.077021,1.
 333995\H,0,-3.060514,-2.178179,1.956655\O,0,1.933238,-0.224087,2.04332
 1\H,0,2.73056,0.045273,2.524476\O,0,-1.933238,0.224087,2.043321\H,0,-2
 .73056,-0.045273,2.524476\\Version=ES64L-G16RevC.02\State=1-A\HF=-921.
 0156203\RMSD=6.322e-09\PG=C02 [X(C20H14O2)]\\@
 The archive entry for this job was punched.


 In the beginning the Universe was created.
 This has made a lot of people very angry
 and been widely regarded as a bad move.
                               -D.Adams
 Job cpu time:       0 days  0 hours 32 minutes  4.5 seconds.
 Elapsed time:       0 days  0 hours  4 minutes 14.6 seconds.
 File lengths (MBytes):  RWF=   1290 Int=      0 D2E=      0 Chk=     78 Scr=      1
 Normal termination of Gaussian 16 at Thu Feb 20 09:31:13 2025.
