 Entering Gaussian System, Link 0=/apl/gaussian/16c02/g16/._.g16
 Initial command:
 /apl/gaussian/16c02/g16/l1.exe "/lwork/users/ux8/8279363.ccpbs1/gaussian/Gau-407139.inp" -scrdir="/lwork/users/ux8/8279363.ccpbs1/gaussian/"
 Default CPUs for threads: 48,49,50,51,52,53,54,55
 Default is to use a total of   8 processors:
                                8 via shared-memory
                                1 via Linda
 Entering Link 1 = /apl/gaussian/16c02/g16/l1.exe PID=    407140.
  
 Copyright (c) 1988-2021, Gaussian, Inc.  All Rights Reserved.
  
 This is part of the Gaussian(R) 16 program.  It is based on
 the Gaussian(R) 09 system (copyright 2009, Gaussian, Inc.),
 the Gaussian(R) 03 system (copyright 2003, Gaussian, Inc.),
 the Gaussian(R) 98 system (copyright 1998, Gaussian, Inc.),
 the Gaussian(R) 94 system (copyright 1995, Gaussian, Inc.),
 the Gaussian 92(TM) system (copyright 1992, Gaussian, Inc.),
 the Gaussian 90(TM) system (copyright 1990, Gaussian, Inc.),
 the Gaussian 88(TM) system (copyright 1988, Gaussian, Inc.),
 the Gaussian 86(TM) system (copyright 1986, Carnegie Mellon
 University), and the Gaussian 82(TM) system (copyright 1983,
 Carnegie Mellon University). Gaussian is a federally registered
 trademark of Gaussian, Inc.
  
 This software contains proprietary and confidential information,
 including trade secrets, belonging to Gaussian, Inc.
  
 This software is provided under written license and may be
 used, copied, transmitted, or stored only in accord with that
 written license.
  
 The following legend is applicable only to US Government
 contracts under FAR:
  
                    RESTRICTED RIGHTS LEGEND
  
 Use, reproduction and disclosure by the US Government is
 subject to restrictions as set forth in subparagraphs (a)
 and (c) of the Commercial Computer Software - Restricted
 Rights clause in FAR 52.227-19.
  
 Gaussian, Inc.
 340 Quinnipiac St., Bldg. 40, Wallingford CT 06492
  
  
 ---------------------------------------------------------------
 Warning -- This program may not be used in any manner that
 competes with the business of Gaussian, Inc. or will provide
 assistance to any competitor of Gaussian, Inc.  The licensee
 of this program is prohibited from giving any competitor of
 Gaussian, Inc. access to this program.  By using this program,
 the user acknowledges that Gaussian, Inc. is engaged in the
 business of creating and licensing software in the field of
 computational chemistry and represents and warrants to the
 licensee that it is not a competitor of Gaussian, Inc. and that
 it will not use this program in any manner prohibited above.
 ---------------------------------------------------------------
  

 Cite this work as:
 Gaussian 16, Revision C.02,
 M. J. Frisch, G. W. Trucks, H. B. Schlegel, G. E. Scuseria, 
 M. A. Robb, J. R. Cheeseman, G. Scalmani, V. Barone, 
 G. A. Petersson, H. Nakatsuji, X. Li, M. Caricato, A. V. Marenich, 
 J. Bloino, B. G. Janesko, R. Gomperts, B. Mennucci, H. P. Hratchian, 
 J. V. Ortiz, A. F. Izmaylov, J. L. Sonnenberg, D. Williams-Young, 
 F. Ding, F. Lipparini, F. Egidi, J. Goings, B. Peng, A. Petrone, 
 T. Henderson, D. Ranasinghe, V. G. Zakrzewski, J. Gao, N. Rega, 
 G. Zheng, W. Liang, M. Hada, M. Ehara, K. Toyota, R. Fukuda, 
 J. Hasegawa, M. Ishida, T. Nakajima, Y. Honda, O. Kitao, H. Nakai, 
 T. Vreven, K. Throssell, J. A. Montgomery, Jr., J. E. Peralta, 
 F. Ogliaro, M. J. Bearpark, J. J. Heyd, E. N. Brothers, K. N. Kudin, 
 V. N. Staroverov, T. A. Keith, R. Kobayashi, J. Normand, 
 K. Raghavachari, A. P. Rendell, J. C. Burant, S. S. Iyengar, 
 J. Tomasi, M. Cossi, J. M. Millam, M. Klene, C. Adamo, R. Cammi, 
 J. W. Ochterski, R. L. Martin, K. Morokuma, O. Farkas, 
 J. B. Foresman, and D. J. Fox, Gaussian, Inc., Wallingford CT, 2019.
 
 ******************************************
 Gaussian 16:  ES64L-G16RevC.02  7-Dec-2021
                20-Feb-2025 
 ******************************************
 %chk=binol.009.tddft.chk
 %mem=9600MB
 SetSPE:  set environment variable "OMP_PROC_BIND" = "true"
 SetSPE:  set environment variable "OMP_PLACES" = "{48},{49},{50},{51},{52},{53},{54},{55}"
 ------------------------------
 # td=(nstat=16) b3lyp/6-31g(d)
 ------------------------------
 1/38=1,172=1/1;
 2/12=2,17=6,18=5,40=1/2;
 3/5=1,6=6,7=1,11=9,25=1,30=1,74=-5/1,2,3,8;
 4//1;
 5/5=2,38=5/2;
 8/6=1,10=2,108=16/1;
 9/41=16,42=1,70=2/14;
 6/7=2,8=2,9=2,10=2/1;
 99/5=1,9=1/99;
 ------------
 binol | No.9
 ------------
 Symbolic Z-matrix:
 Charge =  0 Multiplicity = 1
 C                    -3.0752   -1.85351  -1.24348 
 C                    -1.90916  -1.37693  -0.68333 
 C                    -1.84474  -0.13364   0.0096 
 C                    -3.03572   0.67     -0.07302 
 C                    -4.24025   0.13659  -0.60504 
 C                    -4.27714  -1.11895  -1.1613 
 H                    -3.05917  -2.80255  -1.77366 
 H                    -1.00755  -1.95145  -0.82885 
 C                    -0.64433   0.38931   0.67394 
 C                    -2.9726    2.04641   0.25625 
 H                    -5.12553   0.76865  -0.60152 
 H                    -5.1976   -1.51687  -1.57934 
 C                    -1.77723   2.59986   0.61527 
 C                    -0.62757   1.78689   0.77927 
 H                    -3.86752   2.65795   0.17503 
 H                    -1.6963    3.66545   0.82412 
 C                     4.27736   1.11868  -1.16125 
 C                     4.2403   -0.13683  -0.60493 
 C                     3.03569  -0.67009  -0.07294 
 C                     1.84478   0.13367   0.00958 
 C                     1.90937   1.37693  -0.68341 
 C                     3.07549   1.85336  -1.24351 
 H                     3.86732  -2.65808   0.17522 
 H                     5.19787   1.51648  -1.57927 
 H                     5.12551  -0.76899  -0.60134 
 C                     2.97244  -2.04647   0.2564 
 C                     0.64431  -0.38912   0.67389 
 H                     1.00785   1.95154  -0.82902 
 H                     3.05959   2.80238  -1.77373 
 C                     0.62746  -1.78671   0.77941 
 C                     1.77703  -2.5998    0.61547 
 H                     1.696    -3.66536   0.8244 
 O                     0.47187   2.37068   1.36418 
 H                     0.31065   3.32159   1.45966 
 O                    -0.47207  -2.37035   1.36428 
 H                    -0.31112  -3.32133   1.45947 
 
                          Input orientation:                          
 ---------------------------------------------------------------------
 Center     Atomic      Atomic             Coordinates (Angstroms)
 Number     Number       Type             X           Y           Z
 ---------------------------------------------------------------------
      1          6           0       -3.075199   -1.853511   -1.243481
      2          6           0       -1.909163   -1.376930   -0.683329
      3          6           0       -1.844741   -0.133637    0.009598
      4          6           0       -3.035719    0.670003   -0.073017
      5          6           0       -4.240249    0.136588   -0.605035
      6          6           0       -4.277145   -1.118948   -1.161303
      7          1           0       -3.059171   -2.802547   -1.773664
      8          1           0       -1.007550   -1.951446   -0.828853
      9          6           0       -0.644328    0.389307    0.673939
     10          6           0       -2.972598    2.046411    0.256245
     11          1           0       -5.125533    0.768650   -0.601518
     12          1           0       -5.197598   -1.516866   -1.579340
     13          6           0       -1.777227    2.599860    0.615272
     14          6           0       -0.627572    1.786891    0.779265
     15          1           0       -3.867524    2.657947    0.175033
     16          1           0       -1.696295    3.665448    0.824121
     17          6           0        4.277355    1.118675   -1.161252
     18          6           0        4.240300   -0.136829   -0.604928
     19          6           0        3.035688   -0.670092   -0.072941
     20          6           0        1.844776    0.133673    0.009580
     21          6           0        1.909367    1.376925   -0.683407
     22          6           0        3.075489    1.853356   -1.243512
     23          1           0        3.867320   -2.658083    0.175224
     24          1           0        5.197866    1.516475   -1.579274
     25          1           0        5.125514   -0.768987   -0.601343
     26          6           0        2.972444   -2.046468    0.256401
     27          6           0        0.644310   -0.389123    0.673893
     28          1           0        1.007849    1.951544   -0.829016
     29          1           0        3.059586    2.802376   -1.773727
     30          6           0        0.627460   -1.786705    0.779410
     31          6           0        1.777025   -2.599796    0.615469
     32          1           0        1.696004   -3.665361    0.824396
     33          8           0        0.471867    2.370682    1.364175
     34          1           0        0.310653    3.321593    1.459657
     35          8           0       -0.472070   -2.370345    1.364279
     36          1           0       -0.311119   -3.321330    1.459473
 ---------------------------------------------------------------------
                    Distance matrix (angstroms):
                    1          2          3          4          5
     1  C    0.000000
     2  C    1.378601   0.000000
     3  C    2.458089   1.424807   0.000000
     4  C    2.782026   2.414859   1.439129   0.000000
     5  C    2.392791   2.780437   2.487821   1.420728   0.000000
     6  C    1.411032   2.429476   2.873749   2.434307   1.373742
     7  H    1.087208   2.131603   3.431901   3.866698   3.376263
     8  H    2.111085   1.078959   2.169866   3.399522   3.854909
     9  C    3.823070   2.561558   1.468268   2.521009   3.824956
    10  C    4.179605   3.705800   2.466882   1.416650   2.448707
    11  H    3.389943   3.867201   3.457048   2.157862   1.087770
    12  H    2.175019   3.411191   3.959760   3.424197   2.144691
    13  C    4.997220   4.185526   2.800608   2.404556   3.690980
    14  C    4.830622   3.713680   2.400482   2.788009   4.206093
    15  H    4.795124   4.566420   3.451371   2.169182   2.665461
    16  H    6.052707   5.267190   3.888255   3.401706   4.578978
    17  C    7.930996   6.688009   6.357612   7.407200   8.592057
    18  C    7.541304   6.273746   6.115993   7.339916   8.484955
    19  C    6.333529   5.032270   4.910518   6.217543   7.339831
    20  C    5.452084   4.105375   3.699188   4.910571   6.115986
    21  C    5.966180   4.707960   4.105530   5.032513   6.273943
    22  C    7.181353   5.966180   5.452255   6.333818   7.541549
    23  H    7.131524   5.978814   6.247231   7.667446   8.611136
    24  H    8.939416   7.725566   7.405788   8.412921   9.588078
    25  H    8.297001   7.061374   7.025765   8.303948   9.409442
    26  C    6.233848   5.016120   5.188941   6.601951   7.584902
    27  C    4.433453   3.055820   2.588810   3.901568   5.076509
    28  H    5.596562   4.428196   3.631601   4.308634   5.557586
    29  H    7.719717   6.583619   5.987724   6.677737   7.858744
    30  C    4.219743   2.956683   3.071974   4.492319   5.413902
    31  C    5.249449   4.095151   4.423371   5.859019   6.721980
    32  H    5.506659   4.528508   5.066936   6.479964   7.192857
    33  O    6.101258   4.889394   3.670581   4.154635   5.574316
    34  H    6.749270   5.621040   4.322847   4.536323   5.926037
    35  O    3.720727   2.691618   2.953345   4.228692   4.935796
    36  H    4.135286   3.305456   3.823025   5.069784   5.626496
                    6          7          8          9         10
     6  C    0.000000
     7  H    2.166322   0.000000
     8  H    3.390255   2.413750   0.000000
     9  C    4.340542   4.691499   2.805252   0.000000
    10  C    3.705507   5.257416   4.584944   2.888131   0.000000
    11  H    2.143863   4.289199   4.940485   4.674601   2.646424
    12  H    1.086429   2.502720   4.278854   5.426143   4.584424
    13  C    4.820305   6.044534   4.836557   2.484642   1.365327
    14  C    5.052632   5.787319   4.087247   1.401647   2.416619
    15  H    4.027222   5.853875   5.516679   3.972987   1.086952
    16  H    5.787326   7.102174   5.895438   3.444167   2.138390
    17  C    8.842309   8.341202   6.120976   5.303100   7.445254
    18  C    8.591914   7.858389   5.557239   5.076604   7.585121
    19  C    7.406992   6.677359   4.308253   3.901624   6.602064
    20  C    6.357511   5.987491   3.631316   2.588892   5.189075
    21  C    6.688101   6.583541   4.428048   3.056000   5.016447
    22  C    7.931114   7.719621   5.596398   4.433632   6.234252
    23  H    8.395686   7.196896   5.027113   5.467199   8.302006
    24  H    9.843576   9.320429   7.148202   6.362288   8.390855
    25  H    9.425817   8.514621   6.250156   6.021550   8.616342
    26  C    7.444912   6.408838   4.126398   4.380454   7.217699
    27  C    5.302953   5.052813   2.725388   1.505504   4.380443
    28  H    6.121233   6.327274   4.392626   2.725646   4.126833
    29  H    8.341431   8.297852   6.327180   5.053014   6.409330
    30  C    5.316711   4.597975   2.299328   2.522617   5.284591
    31  C    6.480957   5.397949   3.203167   3.847221   6.653961
    32  H    6.790120   5.486898   3.602769   4.684029   7.398850
    33  O    6.411604   7.005467   5.067429   2.376587   3.632767
    34  H    6.901864   7.701634   5.897447   3.182396   3.722100
    35  O    4.735309   4.089814   2.296093   2.849898   5.195008
    36  H    5.239114   4.274822   2.756453   3.807482   6.110963
                   11         12         13         14         15
    11  H    0.000000
    12  H    2.486948   0.000000
    13  C    4.005629   5.784695   0.000000
    14  C    4.814045   6.112525   1.417575   0.000000
    15  H    2.398971   4.719744   2.136943   3.408977   0.000000
    16  H    4.709943   6.700159   1.088874   2.161749   2.480042
    17  C    9.426034   9.843557   6.481351   5.316994   8.396075
    18  C    9.409502   9.587904   6.722275   5.414136   8.611383
    19  C    8.303909   8.412685   5.859213   4.492493   7.667573
    20  C    7.025798   7.405672   4.423556   3.072141   6.247376
    21  C    7.061623   7.725650   4.095499   2.956948   5.979164
    22  C    8.297319   8.939527   5.249876   4.220036   7.131975
    23  H    9.654907   9.303419   7.726611   6.350332   9.385520
    24  H   10.396529  10.828981   7.392001   6.290593   9.303862
    25  H   10.365727  10.396271   7.776703   6.444889   9.655121
    26  C    8.616156   8.390471   6.654061   5.284708   8.302006
    27  C    6.021478   6.362134   3.847245   2.522662   5.467188
    28  H    6.250549   7.148456   3.203581   2.299626   5.027562
    29  H    8.515062   9.320661   5.398434   4.598273   7.197456
    30  C    6.444667   6.290295   5.005139   3.787571   6.350203
    31  C    7.776425   7.391569   6.298343   5.005191   7.726498
    32  H    8.259967   7.610238   7.166593   5.926896   8.447410
    33  O    6.145026   7.477977   2.381555   1.375390   4.508536
    34  H    6.349652   7.936436   2.364979   1.923151   4.421295
    35  O    5.947467   5.632400   5.193013   4.201075   6.182810
    36  H    6.644863   6.030601   6.158136   5.163017   7.074571
                   16         17         18         19         20
    16  H    0.000000
    17  C    6.790600   0.000000
    18  C    7.193237   1.373739   0.000000
    19  C    6.480223   2.434306   1.420729   0.000000
    20  C    5.067159   2.873764   2.487836   1.439138   0.000000
    21  C    4.528882   2.429485   2.780442   2.414859   1.424808
    22  C    5.507150   1.411030   2.392783   2.782016   2.458089
    23  H    8.447599   4.027182   2.665422   2.169172   3.451380
    24  H    7.610772   1.086429   2.144690   3.424197   3.959774
    25  H    8.260341   2.143861   1.087769   2.157860   3.457060
    26  C    7.399014   3.705491   2.448687   1.416643   2.466895
    27  C    4.684074   4.340533   3.824942   2.520991   1.468246
    28  H    3.603155   3.390239   3.854900   3.399523   2.169872
    29  H    5.487450   2.166319   3.376256   3.866688   3.431898
    30  C    5.926872   5.052636   4.206078   2.787990   2.400489
    31  C    7.166643   4.820313   3.690975   2.404558   2.800633
    32  H    8.077651   5.787329   4.578968   3.401706   3.888280
    33  O    2.582441   4.735720   4.936199   4.229041   2.953645
    34  H    2.133069   5.239918   5.627195   5.070328   3.823492
    35  O    6.182337   6.411599   5.574298   4.154615   3.670571
    36  H    7.151045   6.901879   5.926062   4.536350   4.322860
                   21         22         23         24         25
    21  C    0.000000
    22  C    1.378602   0.000000
    23  H    4.566412   4.795090   0.000000
    24  H    3.411199   2.175019   4.719698   0.000000
    25  H    3.867205   3.389936   2.398915   2.486950   0.000000
    26  C    3.705805   4.179591   1.086952   4.584405   2.646392
    27  C    2.561554   3.823060   3.972989   5.426135   4.674582
    28  H    1.078946   2.111062   5.516678   4.278833   4.940475
    29  H    2.131598   1.087207   5.853841   2.502717   4.289193
    30  C    3.713714   4.830642   3.408964   6.112528   4.814013
    31  C    4.185559   4.997237   2.136948   5.784699   4.005605
    32  H    5.267223   6.052723   2.480050   6.700156   4.709910
    33  O    2.691942   3.721089   6.183137   5.632817   5.947875
    34  H    3.306107   4.136080   7.075039   6.031451   6.645559
    35  O    4.889406   6.101262   4.508542   7.477971   6.144995
    36  H    5.621040   6.749268   4.421374   7.936451   6.349677
                   26         27         28         29         30
    26  C    0.000000
    27  C    2.888131   0.000000
    28  H    4.584961   2.805284   0.000000
    29  H    5.257404   4.691489   2.413715   0.000000
    30  C    2.416602   1.401661   4.087326   5.787349   0.000000
    31  C    1.365331   2.484659   4.836617   6.044558   1.417566
    32  H    2.138395   3.444190   5.895503   7.102198   2.161749
    33  O    5.195312   2.850044   2.296310   4.090120   4.201193
    34  H    6.111386   3.807646   2.757017   4.275628   5.163120
    35  O    3.632763   2.376590   5.067487   7.005478   1.375381
    36  H    3.722155   3.182423   5.897462   7.701624   1.923146
                   31         32         33         34         35
    31  C    0.000000
    32  H    1.088873   0.000000
    33  O    5.193231   6.182531   0.000000
    34  H    6.158388   7.151243   0.969195   0.000000
    35  O    2.381553   2.582457   4.834083   5.746295   0.000000
    36  H    2.365016   2.133125   5.746403   6.671958   0.969195
                   36
    36  H    0.000000
 Stoichiometry    C20H14O2
 Framework group  C1[X(C20H14O2)]
 Deg. of freedom   102
 Full point group                 C1      NOp   1
 Largest Abelian subgroup         C1      NOp   1
 Largest concise Abelian subgroup C1      NOp   1
                         Standard orientation:                         
 ---------------------------------------------------------------------
 Center     Atomic      Atomic             Coordinates (Angstroms)
 Number     Number       Type             X           Y           Z
 ---------------------------------------------------------------------
      1          6           0        3.075199   -1.853511    1.243481
      2          6           0        1.909163   -1.376930    0.683329
      3          6           0        1.844741   -0.133637   -0.009598
      4          6           0        3.035719    0.670003    0.073017
      5          6           0        4.240249    0.136588    0.605035
      6          6           0        4.277145   -1.118948    1.161303
      7          1           0        3.059171   -2.802547    1.773664
      8          1           0        1.007550   -1.951446    0.828853
      9          6           0        0.644328    0.389307   -0.673939
     10          6           0        2.972598    2.046411   -0.256245
     11          1           0        5.125533    0.768650    0.601518
     12          1           0        5.197598   -1.516866    1.579340
     13          6           0        1.777227    2.599860   -0.615272
     14          6           0        0.627572    1.786891   -0.779265
     15          1           0        3.867524    2.657947   -0.175033
     16          1           0        1.696295    3.665448   -0.824121
     17          6           0       -4.277355    1.118675    1.161252
     18          6           0       -4.240300   -0.136829    0.604928
     19          6           0       -3.035688   -0.670092    0.072941
     20          6           0       -1.844776    0.133673   -0.009580
     21          6           0       -1.909367    1.376925    0.683407
     22          6           0       -3.075489    1.853356    1.243512
     23          1           0       -3.867320   -2.658083   -0.175224
     24          1           0       -5.197866    1.516475    1.579274
     25          1           0       -5.125514   -0.768987    0.601343
     26          6           0       -2.972444   -2.046468   -0.256401
     27          6           0       -0.644310   -0.389123   -0.673893
     28          1           0       -1.007849    1.951544    0.829016
     29          1           0       -3.059586    2.802376    1.773727
     30          6           0       -0.627460   -1.786705   -0.779410
     31          6           0       -1.777025   -2.599796   -0.615469
     32          1           0       -1.696004   -3.665361   -0.824396
     33          8           0       -0.471867    2.370682   -1.364175
     34          1           0       -0.310653    3.321593   -1.459657
     35          8           0        0.472070   -2.370345   -1.364279
     36          1           0        0.311119   -3.321330   -1.459473
 ---------------------------------------------------------------------
 Rotational constants (GHZ):           0.5106429           0.2327659           0.1836367
 Standard basis: 6-31G(d) (6D, 7F)
 There are   358 symmetry adapted cartesian basis functions of A   symmetry.
 There are   358 symmetry adapted basis functions of A   symmetry.
   358 basis functions,   672 primitive gaussians,   358 cartesian basis functions
    75 alpha electrons       75 beta electrons
       nuclear repulsion energy      1677.2720663202 Hartrees.
 NAtoms=   36 NActive=   36 NUniq=   36 SFac= 1.00D+00 NAtFMM=   60 NAOKFM=F Big=F
 Integral buffers will be    131072 words long.
 Regular integral format.
 Two-electron integral symmetry is turned on.
 One-electron integrals computed using PRISM.
 NBasis=   358 RedAO= T EigKep=  3.15D-04  NBF=   358
 NBsUse=   358 1.00D-06 EigRej= -1.00D+00 NBFU=   358
 ExpMin= 1.61D-01 ExpMax= 5.48D+03 ExpMxC= 8.25D+02 IAcc=3 IRadAn=         5 AccDes= 0.00D+00
 Harris functional with IExCor=  402 and IRadAn=       5 diagonalized for initial guess.
 HarFok:  IExCor=  402 AccDes= 0.00D+00 IRadAn=         5 IDoV= 1 UseB2=F ITyADJ=14
 ICtDFT=  3500011 ScaDFX=  1.000000  1.000000  1.000000  1.000000
 FoFCou: FMM=F IPFlag=           0 FMFlag=      100000 FMFlg1=           0
         NFxFlg=           0 DoJE=T BraDBF=F KetDBF=T FulRan=T
         wScrn=  0.000000 ICntrl=       500 IOpCl=  0 I1Cent=   200000004 NGrid=           0
         NMat0=    1 NMatS0=      1 NMatT0=    0 NMatD0=    1 NMtDS0=    0 NMtDT0=    0
 Petite list used in FoFCou.
 Requested convergence on RMS density matrix=1.00D-08 within 128 cycles.
 Requested convergence on MAX density matrix=1.00D-06.
 Requested convergence on             energy=1.00D-06.
 No special actions if energy rises.
 Integral accuracy reduced to 1.0D-05 until final iterations.
 Initial convergence to 1.0D-05 achieved.  Increase integral accuracy.
 SCF Done:  E(RB3LYP) =  -920.972796962     A.U. after   14 cycles
            NFock= 14  Conv=0.70D-08     -V/T= 2.0095
 DoSCS=F DFT=T ScalE2(SS,OS)=  1.000000  1.000000
 ExpMin= 1.61D-01 ExpMax= 5.48D+03 ExpMxC= 8.25D+02 IAcc=3 IRadAn=         5 AccDes= 0.00D+00
 HarFok:  IExCor=  205 AccDes= 0.00D+00 IRadAn=         5 IDoV=-2 UseB2=F ITyADJ=14
 ICtDFT= 12500011 ScaDFX=  1.000000  1.000000  1.000000  1.000000
 GSVD:  LWork=        -660 too small for GESVD, short by        2750 words or        2750 for optimal perf.
 Range of M.O.s used for correlation:    23   358
 NBasis=   358 NAE=    75 NBE=    75 NFC=    22 NFV=     0
 NROrb=    336 NOA=    53 NOB=    53 NVA=   283 NVB=   283
 Orbital symmetries:
       Occupied  (A) (A) (A) (A) (A) (A) (A) (A) (A) (A) (A) (A)
                 (A) (A) (A) (A) (A) (A) (A) (A) (A) (A) (A) (A)
                 (A) (A) (A) (A) (A) (A) (A) (A) (A) (A) (A) (A)
                 (A) (A) (A) (A) (A) (A) (A) (A) (A) (A) (A) (A)
                 (A) (A) (A) (A) (A) (A) (A) (A) (A) (A) (A) (A)
                 (A) (A) (A) (A) (A) (A) (A) (A) (A) (A) (A) (A)
                 (A) (A) (A)
       Virtual   (A) (A) (A) (A) (A) (A) (A) (A) (A) (A) (A) (A)
                 (A) (A) (A) (A) (A) (A) (A) (A) (A) (A) (A) (A)
                 (A) (A) (A) (A) (A) (A) (A) (A) (A) (A) (A) (A)
                 (A) (A) (A) (A) (A) (A) (A) (A) (A) (A) (A) (A)
                 (A) (A) (A) (A) (A) (A) (A) (A) (A) (A) (A) (A)
                 (A) (A) (A) (A) (A) (A) (A) (A) (A) (A) (A) (A)
                 (A) (A) (A) (A) (A) (A) (A) (A) (A) (A) (A) (A)
                 (A) (A) (A) (A) (A) (A) (A) (A) (A) (A) (A) (A)
                 (A) (A) (A) (A) (A) (A) (A) (A) (A) (A) (A) (A)
                 (A) (A) (A) (A) (A) (A) (A) (A) (A) (A) (A) (A)
                 (A) (A) (A) (A) (A) (A) (A) (A) (A) (A) (A) (A)
                 (A) (A) (A) (A) (A) (A) (A) (A) (A) (A) (A) (A)
                 (A) (A) (A) (A) (A) (A) (A) (A) (A) (A) (A) (A)
                 (A) (A) (A) (A) (A) (A) (A) (A) (A) (A) (A) (A)
                 (A) (A) (A) (A) (A) (A) (A) (A) (A) (A) (A) (A)
                 (A) (A) (A) (A) (A) (A) (A) (A) (A) (A) (A) (A)
                 (A) (A) (A) (A) (A) (A) (A) (A) (A) (A) (A) (A)
                 (A) (A) (A) (A) (A) (A) (A) (A) (A) (A) (A) (A)
                 (A) (A) (A) (A) (A) (A) (A) (A) (A) (A) (A) (A)
                 (A) (A) (A) (A) (A) (A) (A) (A) (A) (A) (A) (A)
                 (A) (A) (A) (A) (A) (A) (A) (A) (A) (A) (A) (A)
                 (A) (A) (A) (A) (A) (A) (A) (A) (A) (A) (A) (A)
                 (A) (A) (A) (A) (A) (A) (A) (A) (A) (A) (A) (A)
                 (A) (A) (A) (A) (A) (A) (A)
    64 initial guesses have been made.
 Convergence on wavefunction:    0.001000000000000
 Iteration     1 Dimension    64 NMult     0 NNew     64
 CISAX will form    64 AO SS matrices at one time.
 New state      3 was old state      4
 New state      4 was old state      5
 New state      5 was old state      3
 New state      6 was old state      7
 New state      7 was old state      8
 New state      8 was old state      9
 New state      9 was old state     13
 New state     10 was old state     11
 New state     11 was old state     12
 New state     12 was old state     14
 New state     13 was old state     19
 New state     14 was old state     15
 New state     15 was old state     17
 New state     16 was old state     21
 Iteration     2 Dimension    96 NMult    64 NNew     32
 New state      3 was old state      4
 New state      4 was old state      3
 Iteration     3 Dimension   128 NMult    96 NNew     32
 New state     14 was old state     15
 New state     15 was old state     14
 Iteration     4 Dimension   160 NMult   128 NNew     32
 Iteration     5 Dimension   176 NMult   160 NNew     16
 Iteration     6 Dimension   180 NMult   176 NNew      4
 ***********************************************************************
 Excited states from <AA,BB:AA,BB> singles matrix:
 ***********************************************************************
 
 Ground to excited state transition densities written to RWF  633
 Ground to excited state transition electric dipole moments (Au):
       state          X           Y           Z        Dip. S.      Osc.
         1        -1.5317     -0.6953     -0.0000      2.8296      0.2343
         2         0.0004      0.0001     -0.1174      0.0138      0.0012
         3         0.0001      0.0001      0.0986      0.0097      0.0010
         4        -0.4184      0.3119     -0.0000      0.2723      0.0271
         5         0.0000      0.0000     -0.1233      0.0152      0.0016
         6         0.5688     -0.0902     -0.0000      0.3316      0.0363
         7        -0.0002      0.0003     -0.4155      0.1726      0.0197
         8        -0.1681      0.7247      0.0001      0.5534      0.0645
         9         0.5669     -0.3804     -0.0001      0.4661      0.0547
        10        -0.0004      0.0004      0.0523      0.0027      0.0003
        11         0.1450     -0.1296      0.0000      0.0378      0.0046
        12        -1.0579      0.0550      0.0000      1.1221      0.1452
        13        -0.0000      0.0005     -0.8579      0.7359      0.0988
        14        -0.0001      0.0018     -0.3134      0.0982      0.0134
        15         0.0724     -0.6893     -0.0012      0.4804      0.0655
        16        -0.0002     -0.0002      0.2173      0.0472      0.0065
 Ground to excited state transition velocity dipole moments (Au):
       state          X           Y           Z        Dip. S.      Osc.
         1         0.1997      0.0880      0.0000      0.0476      0.2556
         2        -0.0001     -0.0000      0.0167      0.0003      0.0014
         3        -0.0000     -0.0000     -0.0091      0.0001      0.0004
         4         0.0589     -0.0449      0.0000      0.0055      0.0245
         5        -0.0000     -0.0000      0.0179      0.0003      0.0014
         6        -0.0991      0.0102     -0.0000      0.0099      0.0403
         7         0.0000     -0.0000      0.0743      0.0055      0.0215
         8         0.0174     -0.1229     -0.0000      0.0154      0.0588
         9        -0.1006      0.0713      0.0000      0.0152      0.0576
        10         0.0001     -0.0001     -0.0097      0.0001      0.0003
        11        -0.0253      0.0342     -0.0000      0.0018      0.0066
        12         0.1975     -0.0087     -0.0000      0.0391      0.1343
        13         0.0000     -0.0001      0.1742      0.0304      0.1005
        14         0.0000     -0.0004      0.0667      0.0045      0.0145
        15        -0.0116      0.1377      0.0003      0.0191      0.0622
        16         0.0000      0.0000     -0.0466      0.0022      0.0070
 Ground to excited state transition magnetic dipole moments (Au):
       state          X           Y           Z
         1         0.2411     -0.1794     -0.0003
         2        -0.0000      0.0001     -0.9770
         3         0.0000      0.0000      0.5484
         4         0.1384     -0.2872     -0.0001
         5         0.0000      0.0000     -0.2151
         6         0.1594      0.0056     -0.0002
         7         0.0001     -0.0001     -1.3393
         8         0.1151     -0.3141      0.0002
         9        -0.2466      0.3402     -0.0003
        10         0.0002     -0.0004      0.2108
        11        -0.0329      0.2777      0.0001
        12         0.3632     -0.8454      0.0002
        13         0.0001     -0.0002     -2.1140
        14         0.0004     -0.0008     -0.7246
        15        -0.1346      0.3005     -0.0027
        16        -0.0001      0.0001      0.4179
 Ground to excited state transition velocity quadrupole moments (Au):
       state          XX          YY          ZZ          XY          XZ          YZ
         1        -0.0001      0.0000     -0.0000     -0.0000      0.1786     -0.2037
         2        -0.1590     -0.1751      0.0218     -0.2232     -0.0001      0.0000
         3         0.3318      0.1647     -0.0247      0.3666      0.0000      0.0000
         4         0.0000     -0.0000      0.0000     -0.0000      0.1367     -0.0115
         5         0.8860     -0.0253     -0.0152      0.1971     -0.0000      0.0000
         6        -0.0000      0.0000      0.0000      0.0000     -0.1253     -0.0353
         7         0.5397     -0.2779      0.0151     -0.4433      0.0001      0.0000
         8        -0.0002      0.0000      0.0000      0.0000      0.1422      0.0654
         9         0.0001     -0.0001      0.0000     -0.0002     -0.2184      0.0685
        10        -0.0697      0.1206      0.0113      0.0939      0.0002     -0.0000
        11        -0.0000      0.0000      0.0000      0.0001     -0.0334      0.0816
        12        -0.0002      0.0001     -0.0000      0.0000      0.3212     -0.3394
        13         2.0168     -0.6712      0.0747     -1.1261      0.0001     -0.0000
        14         1.0051     -0.0896      0.0225     -0.2160      0.0007     -0.0000
        15         0.0038     -0.0004      0.0001     -0.0010     -0.2600      0.0196
        16        -0.8046      0.0121      0.0044      0.0096     -0.0000      0.0000
 <0|del|b> * <b|rxdel|0> + <0|del|b> * <b|delr+rdel|0>
 Rotatory Strengths (R) in cgs (10**-40 erg-esu-cm/Gauss)
       state          XX          YY          ZZ    R(velocity)    E-M Angle
         1       -89.7162     21.2294    252.6919     61.4017       60.44
         2       -52.2901    -32.8408      0.0000    -28.3770       90.00
         3       -19.6803     -3.9106     -0.0000     -7.8636       90.00
         4        45.1594     17.7115     36.9625     33.2778       26.91
         5        -0.7257    -16.6890     -0.0000     -5.8049       90.00
         6         2.8815    -26.4911    -44.1721    -22.5939      172.09
         7      -273.9374   -137.6942     -0.0000   -137.2105       90.00
         8       113.4021      6.3370     44.4462     54.7284       12.09
         9        80.0173     36.0265     81.1762     65.7400       18.75
        10        -5.8185     -2.2322      0.0001     -2.6836       90.00
        11        20.4524     -2.3598     21.6096     13.2341       29.66
        12        18.5490      8.5466    261.1219     96.0725       64.22
        13      -991.0007   -302.1709      0.0000   -431.0572      179.96
        14      -108.6600    -58.7597      0.0001    -55.8066      179.63
        15       133.4337      2.3128     12.7512     49.4992       19.31
        16       -34.0851    -32.5549     -0.0000    -22.2133       90.00
 1/2[<0|r|b>*<b|rxdel|0> + (<0|rxdel|b>*<b|r|0>)*]
 Rotatory Strengths (R) in cgs (10**-40 erg-esu-cm/Gauss)
       state          XX          YY          ZZ     R(length)
         1       261.1330    -88.2079     -0.0000     57.6417
         2         0.0000     -0.0000    -81.0998    -27.0333
         3        -0.0000     -0.0000    -38.2375    -12.7458
         4        40.9629     63.3479     -0.0000     34.7703
         5        -0.0000     -0.0000    -18.7502     -6.2501
         6       -64.1076      0.3598     -0.0000    -21.2493
         7         0.0000      0.0000   -393.5090   -131.1697
         8        13.6819    160.9543     -0.0000     58.2120
         9        98.8802     91.5117     -0.0000     63.4640
        10         0.0000      0.0001     -7.8013     -2.6004
        11         3.3757     25.4467     -0.0000      9.6075
        12       271.6904     32.8830     -0.0000    101.5245
        13         0.0000      0.0001  -1282.4824   -427.4941
        14         0.0000      0.0009   -160.5901    -53.5297
        15         6.8913    146.4984     -0.0023     51.1291
        16        -0.0000      0.0000    -64.2044    -21.4015
  1/2[<0|del|b>*<b|r|0> + (<0|r|b>*<b|del|0>)*] (Au)
       state          X           Y           Z        Dip. S.   Osc.(frdel)
         1        -0.3058     -0.0612     -0.0000      0.3670      0.2447
         2        -0.0000     -0.0000     -0.0020      0.0020      0.0013
         3        -0.0000     -0.0000     -0.0009      0.0009      0.0006
         4        -0.0246     -0.0140     -0.0000      0.0386      0.0258
         5        -0.0000     -0.0000     -0.0022      0.0022      0.0015
         6        -0.0564     -0.0009      0.0000      0.0573      0.0382
         7        -0.0000     -0.0000     -0.0309      0.0309      0.0206
         8        -0.0029     -0.0891     -0.0000      0.0920      0.0613
         9        -0.0571     -0.0271     -0.0000      0.0842      0.0561
        10        -0.0000     -0.0000     -0.0005      0.0005      0.0003
        11        -0.0037     -0.0044     -0.0000      0.0081      0.0054
        12        -0.2090     -0.0005     -0.0000      0.2094      0.1396
        13        -0.0000     -0.0000     -0.1495      0.1495      0.0996
        14        -0.0000     -0.0000     -0.0209      0.0209      0.0139
        15        -0.0008     -0.0949     -0.0000      0.0957      0.0638
        16        -0.0000     -0.0000     -0.0101      0.0101      0.0068

 Excitation energies and oscillator strengths:
 
 Excited State   1:      Singlet-A      3.3792 eV  366.90 nm  f=0.2343  <S**2>=0.000
      75 -> 76         0.69886
 This state for optimization and/or second-order correction.
 Total Energy, E(TD-HF/TD-DFT) =  -920.848613384    
 Copying the excited state density for this state as the 1-particle RhoCI density.
 
 Excited State   2:      Singlet-A      3.6795 eV  336.96 nm  f=0.0012  <S**2>=0.000
      74 -> 76         0.67095
      75 -> 77         0.17229
 
 Excited State   3:      Singlet-A      4.0532 eV  305.89 nm  f=0.0010  <S**2>=0.000
      72 -> 76        -0.32184
      75 -> 77         0.57306
      75 -> 79         0.19650
 
 Excited State   4:      Singlet-A      4.0591 eV  305.45 nm  f=0.0271  <S**2>=0.000
      73 -> 76         0.57337
      74 -> 77         0.10327
      74 -> 79         0.10862
      75 -> 78         0.36879
 
 Excited State   5:      Singlet-A      4.2428 eV  292.22 nm  f=0.0016  <S**2>=0.000
      72 -> 76         0.51001
      74 -> 76        -0.16410
      74 -> 78        -0.13864
      75 -> 77         0.34788
      75 -> 79        -0.24993
 
 Excited State   6:      Singlet-A      4.4669 eV  277.56 nm  f=0.0363  <S**2>=0.000
      71 -> 76        -0.18275
      72 -> 77         0.14451
      73 -> 76        -0.27185
      74 -> 77         0.55776
      75 -> 78         0.21093
 
 Excited State   7:      Singlet-A      4.6545 eV  266.37 nm  f=0.0197  <S**2>=0.000
      72 -> 76         0.30311
      73 -> 77        -0.34690
      75 -> 79         0.52139
 
 Excited State   8:      Singlet-A      4.7596 eV  260.49 nm  f=0.0645  <S**2>=0.000
      71 -> 76         0.37519
      72 -> 77        -0.16231
      73 -> 76         0.16277
      74 -> 77         0.36567
      74 -> 79         0.17725
      75 -> 78        -0.34833
 
 Excited State   9:      Singlet-A      4.7884 eV  258.93 nm  f=0.0547  <S**2>=0.000
      71 -> 76         0.53979
      73 -> 76        -0.13234
      74 -> 79        -0.21526
      75 -> 78         0.34133
 
 Excited State  10:      Singlet-A      4.8969 eV  253.19 nm  f=0.0003  <S**2>=0.000
      72 -> 78        -0.10099
      73 -> 77        -0.37074
      74 -> 78         0.53225
      75 -> 79        -0.22266
 
 Excited State  11:      Singlet-A      5.0108 eV  247.43 nm  f=0.0046  <S**2>=0.000
      72 -> 77         0.49957
      74 -> 77        -0.12003
      74 -> 79         0.44903
 
 Excited State  12:      Singlet-A      5.2826 eV  234.70 nm  f=0.1452  <S**2>=0.000
      71 -> 76        -0.11709
      74 -> 79        -0.17186
      75 -> 80         0.65648
 
 Excited State  13:      Singlet-A      5.4805 eV  226.23 nm  f=0.0988  <S**2>=0.000
      70 -> 76         0.10181
      71 -> 77         0.27822
      72 -> 76         0.12088
      73 -> 77         0.38848
      73 -> 79         0.22375
      74 -> 78         0.30512
      75 -> 79         0.18408
      75 -> 81        -0.16731
 
 Excited State  14:      Singlet-A      5.5568 eV  223.12 nm  f=0.0134  <S**2>=0.000
      71 -> 77        -0.40874
      71 -> 79        -0.12260
      72 -> 78         0.45119
      74 -> 78         0.18934
      74 -> 80        -0.10078
      75 -> 81         0.20193
 
 Excited State  15:      Singlet-A      5.5638 eV  222.84 nm  f=0.0655  <S**2>=0.000
      72 -> 77        -0.13041
      72 -> 79         0.32149
      73 -> 78         0.58869
 
 Excited State  16:      Singlet-A      5.6241 eV  220.45 nm  f=0.0065  <S**2>=0.000
      70 -> 76        -0.28013
      71 -> 79         0.12275
      72 -> 78         0.11600
      73 -> 79         0.52499
      74 -> 78        -0.11892
      74 -> 80         0.27042
      75 -> 81         0.13867
 SavETr:  write IOETrn=   770 NScale= 10 NData=  16 NLR=1 NState=   16 LETran=     298.

 **********************************************************************

            Population analysis using the SCF Density.

 **********************************************************************

 Orbital symmetries:
       Occupied  (A) (A) (A) (A) (A) (A) (A) (A) (A) (A) (A) (A)
                 (A) (A) (A) (A) (A) (A) (A) (A) (A) (A) (A) (A)
                 (A) (A) (A) (A) (A) (A) (A) (A) (A) (A) (A) (A)
                 (A) (A) (A) (A) (A) (A) (A) (A) (A) (A) (A) (A)
                 (A) (A) (A) (A) (A) (A) (A) (A) (A) (A) (A) (A)
                 (A) (A) (A) (A) (A) (A) (A) (A) (A) (A) (A) (A)
                 (A) (A) (A)
       Virtual   (A) (A) (A) (A) (A) (A) (A) (A) (A) (A) (A) (A)
                 (A) (A) (A) (A) (A) (A) (A) (A) (A) (A) (A) (A)
                 (A) (A) (A) (A) (A) (A) (A) (A) (A) (A) (A) (A)
                 (A) (A) (A) (A) (A) (A) (A) (A) (A) (A) (A) (A)
                 (A) (A) (A) (A) (A) (A) (A) (A) (A) (A) (A) (A)
                 (A) (A) (A) (A) (A) (A) (A) (A) (A) (A) (A) (A)
                 (A) (A) (A) (A) (A) (A) (A) (A) (A) (A) (A) (A)
                 (A) (A) (A) (A) (A) (A) (A) (A) (A) (A) (A) (A)
                 (A) (A) (A) (A) (A) (A) (A) (A) (A) (A) (A) (A)
                 (A) (A) (A) (A) (A) (A) (A) (A) (A) (A) (A) (A)
                 (A) (A) (A) (A) (A) (A) (A) (A) (A) (A) (A) (A)
                 (A) (A) (A) (A) (A) (A) (A) (A) (A) (A) (A) (A)
                 (A) (A) (A) (A) (A) (A) (A) (A) (A) (A) (A) (A)
                 (A) (A) (A) (A) (A) (A) (A) (A) (A) (A) (A) (A)
                 (A) (A) (A) (A) (A) (A) (A) (A) (A) (A) (A) (A)
                 (A) (A) (A) (A) (A) (A) (A) (A) (A) (A) (A) (A)
                 (A) (A) (A) (A) (A) (A) (A) (A) (A) (A) (A) (A)
                 (A) (A) (A) (A) (A) (A) (A) (A) (A) (A) (A) (A)
                 (A) (A) (A) (A) (A) (A) (A) (A) (A) (A) (A) (A)
                 (A) (A) (A) (A) (A) (A) (A) (A) (A) (A) (A) (A)
                 (A) (A) (A) (A) (A) (A) (A) (A) (A) (A) (A) (A)
                 (A) (A) (A) (A) (A) (A) (A) (A) (A) (A) (A) (A)
                 (A) (A) (A) (A) (A) (A) (A) (A) (A) (A) (A) (A)
                 (A) (A) (A) (A) (A) (A) (A)
 The electronic state is 1-A.
 Alpha  occ. eigenvalues --  -19.17286 -19.17286 -10.24929 -10.24928 -10.19811
 Alpha  occ. eigenvalues --  -10.19787 -10.19680 -10.19680 -10.19308 -10.19308
 Alpha  occ. eigenvalues --  -10.19209 -10.19209 -10.18919 -10.18919 -10.18210
 Alpha  occ. eigenvalues --  -10.18210 -10.18018 -10.18018 -10.17949 -10.17949
 Alpha  occ. eigenvalues --  -10.17566 -10.17566  -1.05609  -1.05521  -0.86843
 Alpha  occ. eigenvalues --   -0.85976  -0.81392  -0.80926  -0.78731  -0.75033
 Alpha  occ. eigenvalues --   -0.72942  -0.72900  -0.71848  -0.70587  -0.63122
 Alpha  occ. eigenvalues --   -0.62708  -0.60934  -0.60877  -0.59592  -0.56727
 Alpha  occ. eigenvalues --   -0.54783  -0.54435  -0.51809  -0.50186  -0.48971
 Alpha  occ. eigenvalues --   -0.48751  -0.46346  -0.46323  -0.44621  -0.43562
 Alpha  occ. eigenvalues --   -0.42779  -0.42124  -0.41780  -0.41420  -0.41120
 Alpha  occ. eigenvalues --   -0.39685  -0.39070  -0.38825  -0.38556  -0.36802
 Alpha  occ. eigenvalues --   -0.36123  -0.35873  -0.35085  -0.33739  -0.33529
 Alpha  occ. eigenvalues --   -0.32982  -0.31651  -0.30516  -0.29693  -0.28640
 Alpha  occ. eigenvalues --   -0.24984  -0.22693  -0.22357  -0.20769  -0.18894
 Alpha virt. eigenvalues --   -0.04900  -0.01887  -0.00017   0.00257   0.02967
 Alpha virt. eigenvalues --    0.04956   0.06932   0.07053   0.09537   0.09604
 Alpha virt. eigenvalues --    0.10830   0.11237   0.12037   0.12201   0.14317
 Alpha virt. eigenvalues --    0.15389   0.17410   0.17448   0.18262   0.18325
 Alpha virt. eigenvalues --    0.19685   0.20084   0.20714   0.21832   0.23306
 Alpha virt. eigenvalues --    0.24638   0.25384   0.27217   0.27459   0.29559
 Alpha virt. eigenvalues --    0.29678   0.31396   0.32010   0.33363   0.33791
 Alpha virt. eigenvalues --    0.34955   0.36190   0.36885   0.37663   0.39164
 Alpha virt. eigenvalues --    0.40384   0.48003   0.48450   0.49251   0.50451
 Alpha virt. eigenvalues --    0.50582   0.51840   0.52605   0.52660   0.53396
 Alpha virt. eigenvalues --    0.54046   0.54735   0.55417   0.55618   0.55736
 Alpha virt. eigenvalues --    0.56601   0.57289   0.57452   0.57929   0.59403
 Alpha virt. eigenvalues --    0.59553   0.59943   0.60412   0.60427   0.60946
 Alpha virt. eigenvalues --    0.61372   0.61970   0.62257   0.62900   0.62922
 Alpha virt. eigenvalues --    0.63092   0.63409   0.64442   0.64531   0.65001
 Alpha virt. eigenvalues --    0.65108   0.66597   0.67733   0.68239   0.68838
 Alpha virt. eigenvalues --    0.70824   0.71932   0.73652   0.74771   0.78325
 Alpha virt. eigenvalues --    0.78649   0.78741   0.81671   0.82371   0.83070
 Alpha virt. eigenvalues --    0.84183   0.84413   0.84658   0.84818   0.85911
 Alpha virt. eigenvalues --    0.86546   0.87539   0.88108   0.88926   0.89238
 Alpha virt. eigenvalues --    0.89805   0.90200   0.91320   0.92414   0.93549
 Alpha virt. eigenvalues --    0.94421   0.94636   0.95768   0.96033   0.98283
 Alpha virt. eigenvalues --    0.98359   1.00455   1.00496   1.02486   1.02552
 Alpha virt. eigenvalues --    1.03483   1.03519   1.05382   1.06469   1.07136
 Alpha virt. eigenvalues --    1.08320   1.10444   1.10826   1.11985   1.14237
 Alpha virt. eigenvalues --    1.14320   1.14898   1.17682   1.19553   1.22497
 Alpha virt. eigenvalues --    1.23859   1.25445   1.25473   1.26655   1.29121
 Alpha virt. eigenvalues --    1.29260   1.30159   1.30911   1.31844   1.34112
 Alpha virt. eigenvalues --    1.35092   1.37098   1.37692   1.40412   1.42145
 Alpha virt. eigenvalues --    1.43866   1.44623   1.45548   1.46482   1.47445
 Alpha virt. eigenvalues --    1.47546   1.48737   1.50090   1.50241   1.51649
 Alpha virt. eigenvalues --    1.52388   1.52676   1.56125   1.58158   1.60539
 Alpha virt. eigenvalues --    1.60898   1.62627   1.70293   1.72097   1.75045
 Alpha virt. eigenvalues --    1.75277   1.75350   1.76127   1.78631   1.78714
 Alpha virt. eigenvalues --    1.79939   1.80580   1.81783   1.82562   1.82760
 Alpha virt. eigenvalues --    1.85470   1.85882   1.86160   1.88191   1.89068
 Alpha virt. eigenvalues --    1.90766   1.91158   1.91281   1.91892   1.94026
 Alpha virt. eigenvalues --    1.94214   1.96109   1.97904   1.98995   1.99478
 Alpha virt. eigenvalues --    2.02118   2.02414   2.04031   2.04860   2.06042
 Alpha virt. eigenvalues --    2.06058   2.07009   2.08659   2.13507   2.14302
 Alpha virt. eigenvalues --    2.14649   2.15014   2.18698   2.20416   2.21375
 Alpha virt. eigenvalues --    2.21573   2.23444   2.24315   2.28099   2.28231
 Alpha virt. eigenvalues --    2.29846   2.32064   2.32136   2.32950   2.34116
 Alpha virt. eigenvalues --    2.34645   2.34831   2.36167   2.36537   2.40245
 Alpha virt. eigenvalues --    2.41707   2.41830   2.42826   2.49359   2.49650
 Alpha virt. eigenvalues --    2.50379   2.54564   2.57355   2.60098   2.60263
 Alpha virt. eigenvalues --    2.61532   2.62780   2.63968   2.64378   2.65890
 Alpha virt. eigenvalues --    2.67295   2.68484   2.68962   2.70858   2.73198
 Alpha virt. eigenvalues --    2.75259   2.76434   2.78848   2.82044   2.83121
 Alpha virt. eigenvalues --    2.84618   2.86312   2.86719   2.87898   2.91411
 Alpha virt. eigenvalues --    2.92441   2.97205   3.02872   3.04853   3.05554
 Alpha virt. eigenvalues --    3.09578   3.17876   3.32903   3.37343   3.45224
 Alpha virt. eigenvalues --    3.47389   3.94412   4.02605   4.09846   4.10397
 Alpha virt. eigenvalues --    4.10928   4.11608   4.14183   4.14652   4.15849
 Alpha virt. eigenvalues --    4.16889   4.21297   4.25788   4.30831   4.32038
 Alpha virt. eigenvalues --    4.40214   4.40841   4.43369   4.48547   4.55250
 Alpha virt. eigenvalues --    4.61708   4.76749   4.86202
          Condensed to atoms (all electrons):
               1          2          3          4          5          6
     1  C    4.908163   0.528772  -0.013625  -0.037459  -0.028179   0.500810
     2  C    0.528772   5.046986   0.459122  -0.034321  -0.061430  -0.020972
     3  C   -0.013625   0.459122   4.886067   0.458664  -0.037666  -0.035106
     4  C   -0.037459  -0.034321   0.458664   4.737744   0.460941  -0.010123
     5  C   -0.028179  -0.061430  -0.037666   0.460941   5.064725   0.527109
     6  C    0.500810  -0.020972  -0.035106  -0.010123   0.527109   4.899277
     7  H    0.357481  -0.039347   0.003621   0.000865   0.004740  -0.044296
     8  H   -0.044541   0.343875  -0.035585   0.005391   0.000652   0.004904
     9  C    0.006838  -0.071194   0.378152  -0.017811   0.009919  -0.000461
    10  C   -0.000085   0.012467  -0.030704   0.449402  -0.071724   0.007393
    11  H    0.004687   0.000505   0.004277  -0.044572   0.354998  -0.045343
    12  H   -0.040995   0.004349   0.000951   0.003027  -0.038051   0.355241
    13  C    0.000053  -0.000042  -0.052540  -0.008529   0.008633  -0.000428
    14  C   -0.000146   0.006810   0.004698  -0.049308  -0.000280   0.000030
    15  H    0.000000  -0.000189   0.005050  -0.039434  -0.008650   0.000220
    16  H   -0.000000   0.000015   0.000670   0.003010  -0.000206   0.000004
    17  C    0.000000  -0.000000  -0.000001   0.000000  -0.000000  -0.000000
    18  C   -0.000000   0.000001  -0.000001  -0.000000   0.000000  -0.000000
    19  C   -0.000001   0.000012   0.000050  -0.000001  -0.000000   0.000000
    20  C    0.000029  -0.000196  -0.001057   0.000050  -0.000001  -0.000001
    21  C   -0.000001   0.000007  -0.000196   0.000012   0.000001  -0.000000
    22  C   -0.000000  -0.000001   0.000029  -0.000001  -0.000000   0.000000
    23  H   -0.000000  -0.000001   0.000000   0.000000  -0.000000   0.000000
    24  H   -0.000000  -0.000000   0.000000  -0.000000  -0.000000   0.000000
    25  H   -0.000000   0.000000  -0.000000   0.000000  -0.000000   0.000000
    26  C    0.000001  -0.000059  -0.000009   0.000000  -0.000000   0.000000
    27  C    0.001234  -0.017487  -0.064496   0.007074  -0.000085  -0.000035
    28  H    0.000002  -0.000007  -0.000190  -0.000068  -0.000003   0.000000
    29  H   -0.000000  -0.000000  -0.000000   0.000000   0.000000   0.000000
    30  C    0.000022   0.003001  -0.011192   0.000085  -0.000004  -0.000005
    31  C   -0.000069  -0.001007   0.001033   0.000007  -0.000000   0.000001
    32  H    0.000001   0.000047  -0.000010  -0.000000   0.000000  -0.000000
    33  O    0.000000  -0.000062   0.001956   0.000334   0.000000  -0.000000
    34  H   -0.000000   0.000006  -0.000013  -0.000083  -0.000001   0.000000
    35  O   -0.001572  -0.008268  -0.006168  -0.000503   0.000005   0.000005
    36  H    0.000142   0.000823   0.000230   0.000015  -0.000001  -0.000002
               7          8          9         10         11         12
     1  C    0.357481  -0.044541   0.006838  -0.000085   0.004687  -0.040995
     2  C   -0.039347   0.343875  -0.071194   0.012467   0.000505   0.004349
     3  C    0.003621  -0.035585   0.378152  -0.030704   0.004277   0.000951
     4  C    0.000865   0.005391  -0.017811   0.449402  -0.044572   0.003027
     5  C    0.004740   0.000652   0.009919  -0.071724   0.354998  -0.038051
     6  C   -0.044296   0.004904  -0.000461   0.007393  -0.045343   0.355241
     7  H    0.606864  -0.006597  -0.000146   0.000006  -0.000208  -0.004823
     8  H   -0.006597   0.602510  -0.013014  -0.000193   0.000019  -0.000197
     9  C   -0.000146  -0.013014   5.200770  -0.050964  -0.000143   0.000014
    10  C    0.000006  -0.000193  -0.050964   5.076578  -0.009190  -0.000207
    11  H   -0.000208   0.000019  -0.000143  -0.009190   0.609197  -0.005399
    12  H   -0.004823  -0.000197   0.000014  -0.000207  -0.005399   0.601304
    13  C   -0.000000   0.000016  -0.030722   0.469416   0.000383   0.000004
    14  C    0.000002  -0.000264   0.430644  -0.001039   0.000009  -0.000000
    15  H   -0.000000   0.000003   0.000264   0.350228   0.006815  -0.000014
    16  H    0.000000  -0.000000   0.004134  -0.027236  -0.000011  -0.000000
    17  C    0.000000   0.000000  -0.000035   0.000000   0.000000   0.000000
    18  C    0.000000  -0.000003  -0.000085  -0.000000  -0.000000  -0.000000
    19  C    0.000000  -0.000069   0.007074   0.000000   0.000000  -0.000000
    20  C   -0.000000  -0.000190  -0.064509  -0.000009  -0.000000   0.000000
    21  C   -0.000000  -0.000007  -0.017486  -0.000059   0.000000  -0.000000
    22  C   -0.000000   0.000002   0.001234   0.000001  -0.000000  -0.000000
    23  H   -0.000000  -0.000002   0.000008   0.000000  -0.000000   0.000000
    24  H   -0.000000  -0.000000   0.000000   0.000000  -0.000000   0.000000
    25  H    0.000000   0.000000   0.000001  -0.000000   0.000000  -0.000000
    26  C   -0.000000   0.000072  -0.000653  -0.000000  -0.000000   0.000000
    27  C    0.000006   0.001495   0.327876  -0.000653   0.000001   0.000000
    28  H   -0.000000  -0.000005   0.001495   0.000072   0.000000  -0.000000
    29  H    0.000000  -0.000000   0.000006  -0.000000   0.000000  -0.000000
    30  C    0.000016   0.014630  -0.047037   0.000013   0.000000  -0.000000
    31  C   -0.000001   0.002652   0.006916  -0.000000   0.000000  -0.000000
    32  H    0.000000   0.000007  -0.000086   0.000000  -0.000000  -0.000000
    33  O   -0.000000  -0.000001  -0.061337   0.005215  -0.000000   0.000000
    34  H    0.000000   0.000000   0.006476   0.000928   0.000000  -0.000000
    35  O   -0.000022  -0.008085   0.004619   0.000004   0.000000   0.000000
    36  H    0.000007   0.000845  -0.000459  -0.000000  -0.000000  -0.000000
              13         14         15         16         17         18
     1  C    0.000053  -0.000146   0.000000  -0.000000   0.000000  -0.000000
     2  C   -0.000042   0.006810  -0.000189   0.000015  -0.000000   0.000001
     3  C   -0.052540   0.004698   0.005050   0.000670  -0.000001  -0.000001
     4  C   -0.008529  -0.049308  -0.039434   0.003010   0.000000  -0.000000
     5  C    0.008633  -0.000280  -0.008650  -0.000206  -0.000000   0.000000
     6  C   -0.000428   0.000030   0.000220   0.000004  -0.000000  -0.000000
     7  H   -0.000000   0.000002  -0.000000   0.000000   0.000000   0.000000
     8  H    0.000016  -0.000264   0.000003  -0.000000   0.000000  -0.000003
     9  C   -0.030722   0.430644   0.000264   0.004134  -0.000035  -0.000085
    10  C    0.469416  -0.001039   0.350228  -0.027236   0.000000  -0.000000
    11  H    0.000383   0.000009   0.006815  -0.000011   0.000000  -0.000000
    12  H    0.000004  -0.000000  -0.000014  -0.000000   0.000000  -0.000000
    13  C    5.143054   0.431934  -0.041241   0.341763   0.000001  -0.000000
    14  C    0.431934   4.758717   0.003845  -0.045100  -0.000005  -0.000004
    15  H   -0.041241   0.003845   0.595115  -0.005496   0.000000  -0.000000
    16  H    0.341763  -0.045100  -0.005496   0.605356  -0.000000   0.000000
    17  C    0.000001  -0.000005   0.000000  -0.000000   4.899285   0.527101
    18  C   -0.000000  -0.000004  -0.000000   0.000000   0.527101   5.064730
    19  C    0.000007   0.000085   0.000000  -0.000000  -0.010123   0.460941
    20  C    0.001033  -0.011190   0.000000  -0.000010  -0.035107  -0.037662
    21  C   -0.001006   0.003004  -0.000001   0.000047  -0.020971  -0.061433
    22  C   -0.000069   0.000022  -0.000000   0.000001   0.500808  -0.028176
    23  H   -0.000000  -0.000000   0.000000  -0.000000   0.000220  -0.008650
    24  H   -0.000000  -0.000000   0.000000  -0.000000   0.355241  -0.038050
    25  H    0.000000   0.000000  -0.000000  -0.000000  -0.045343   0.355000
    26  C   -0.000000   0.000013   0.000000   0.000000   0.007393  -0.071726
    27  C    0.006916  -0.047036   0.000008  -0.000086  -0.000462   0.009921
    28  H    0.002648   0.014623  -0.000002   0.000007   0.004904   0.000652
    29  H   -0.000001   0.000016  -0.000000   0.000000  -0.044297   0.004740
    30  C   -0.000228   0.005603  -0.000000   0.000002   0.000030  -0.000280
    31  C    0.000001  -0.000228  -0.000000  -0.000000  -0.000429   0.008634
    32  H   -0.000000   0.000002  -0.000000   0.000000   0.000004  -0.000206
    33  O   -0.055388   0.245835  -0.000062  -0.006224   0.000005   0.000005
    34  H   -0.004576  -0.030634  -0.000020   0.009452  -0.000002  -0.000001
    35  O   -0.000007   0.000242   0.000000  -0.000000  -0.000000   0.000000
    36  H   -0.000000   0.000007  -0.000000   0.000000   0.000000  -0.000001
              19         20         21         22         23         24
     1  C   -0.000001   0.000029  -0.000001  -0.000000  -0.000000  -0.000000
     2  C    0.000012  -0.000196   0.000007  -0.000001  -0.000001  -0.000000
     3  C    0.000050  -0.001057  -0.000196   0.000029   0.000000   0.000000
     4  C   -0.000001   0.000050   0.000012  -0.000001   0.000000  -0.000000
     5  C   -0.000000  -0.000001   0.000001  -0.000000  -0.000000  -0.000000
     6  C    0.000000  -0.000001  -0.000000   0.000000   0.000000   0.000000
     7  H    0.000000  -0.000000  -0.000000  -0.000000  -0.000000  -0.000000
     8  H   -0.000069  -0.000190  -0.000007   0.000002  -0.000002  -0.000000
     9  C    0.007074  -0.064509  -0.017486   0.001234   0.000008   0.000000
    10  C    0.000000  -0.000009  -0.000059   0.000001   0.000000   0.000000
    11  H    0.000000  -0.000000   0.000000  -0.000000  -0.000000  -0.000000
    12  H   -0.000000   0.000000  -0.000000  -0.000000   0.000000   0.000000
    13  C    0.000007   0.001033  -0.001006  -0.000069  -0.000000  -0.000000
    14  C    0.000085  -0.011190   0.003004   0.000022  -0.000000  -0.000000
    15  H    0.000000   0.000000  -0.000001  -0.000000   0.000000   0.000000
    16  H   -0.000000  -0.000010   0.000047   0.000001  -0.000000  -0.000000
    17  C   -0.010123  -0.035107  -0.020971   0.500808   0.000220   0.355241
    18  C    0.460941  -0.037662  -0.061433  -0.028176  -0.008650  -0.038050
    19  C    4.737764   0.458637  -0.034329  -0.037459  -0.039434   0.003027
    20  C    0.458637   4.886072   0.459120  -0.013616   0.005050   0.000951
    21  C   -0.034329   0.459120   5.047011   0.528763  -0.000189   0.004349
    22  C   -0.037459  -0.013616   0.528763   4.908150   0.000000  -0.040995
    23  H   -0.039434   0.005050  -0.000189   0.000000   0.595113  -0.000014
    24  H    0.003027   0.000951   0.004349  -0.040995  -0.000014   0.601303
    25  H   -0.044573   0.004277   0.000505   0.004687   0.006816  -0.005399
    26  C    0.449397  -0.030691   0.012468  -0.000086   0.350228  -0.000207
    27  C   -0.017805   0.378161  -0.071203   0.006840   0.000264   0.000014
    28  H    0.005391  -0.035584   0.343882  -0.044542   0.000003  -0.000197
    29  H    0.000865   0.003621  -0.039346   0.357481  -0.000000  -0.004823
    30  C   -0.049309   0.004701   0.006812  -0.000146   0.003844  -0.000000
    31  C   -0.008525  -0.052544  -0.000042   0.000053  -0.041239   0.000004
    32  H    0.003009   0.000670   0.000015  -0.000000  -0.005496  -0.000000
    33  O   -0.000502  -0.006161  -0.008258  -0.001571   0.000000   0.000000
    34  H    0.000015   0.000229   0.000822   0.000141  -0.000000  -0.000000
    35  O    0.000334   0.001956  -0.000062   0.000000  -0.000062   0.000000
    36  H   -0.000083  -0.000013   0.000006  -0.000000  -0.000020  -0.000000
              25         26         27         28         29         30
     1  C   -0.000000   0.000001   0.001234   0.000002  -0.000000   0.000022
     2  C    0.000000  -0.000059  -0.017487  -0.000007  -0.000000   0.003001
     3  C   -0.000000  -0.000009  -0.064496  -0.000190  -0.000000  -0.011192
     4  C    0.000000   0.000000   0.007074  -0.000068   0.000000   0.000085
     5  C   -0.000000  -0.000000  -0.000085  -0.000003   0.000000  -0.000004
     6  C    0.000000   0.000000  -0.000035   0.000000   0.000000  -0.000005
     7  H    0.000000  -0.000000   0.000006  -0.000000   0.000000   0.000016
     8  H    0.000000   0.000072   0.001495  -0.000005  -0.000000   0.014630
     9  C    0.000001  -0.000653   0.327876   0.001495   0.000006  -0.047037
    10  C   -0.000000  -0.000000  -0.000653   0.000072  -0.000000   0.000013
    11  H    0.000000  -0.000000   0.000001   0.000000   0.000000   0.000000
    12  H   -0.000000   0.000000   0.000000  -0.000000  -0.000000  -0.000000
    13  C    0.000000  -0.000000   0.006916   0.002648  -0.000001  -0.000228
    14  C    0.000000   0.000013  -0.047036   0.014623   0.000016   0.005603
    15  H   -0.000000   0.000000   0.000008  -0.000002  -0.000000  -0.000000
    16  H   -0.000000   0.000000  -0.000086   0.000007   0.000000   0.000002
    17  C   -0.045343   0.007393  -0.000462   0.004904  -0.044297   0.000030
    18  C    0.355000  -0.071726   0.009921   0.000652   0.004740  -0.000280
    19  C   -0.044573   0.449397  -0.017805   0.005391   0.000865  -0.049309
    20  C    0.004277  -0.030691   0.378161  -0.035584   0.003621   0.004701
    21  C    0.000505   0.012468  -0.071203   0.343882  -0.039346   0.006812
    22  C    0.004687  -0.000086   0.006840  -0.044542   0.357481  -0.000146
    23  H    0.006816   0.350228   0.000264   0.000003  -0.000000   0.003844
    24  H   -0.005399  -0.000207   0.000014  -0.000197  -0.004823  -0.000000
    25  H    0.609195  -0.009190  -0.000143   0.000019  -0.000208   0.000009
    26  C   -0.009190   5.076615  -0.050972  -0.000193   0.000006  -0.001030
    27  C   -0.000143  -0.050972   5.200769  -0.013011  -0.000146   0.430645
    28  H    0.000019  -0.000193  -0.013011   0.602490  -0.006597  -0.000264
    29  H   -0.000208   0.000006  -0.000146  -0.006597   0.606861   0.000002
    30  C    0.000009  -0.001030   0.430645  -0.000264   0.000002   4.758728
    31  C    0.000383   0.469387  -0.030733   0.000016  -0.000000   0.431943
    32  H   -0.000011  -0.027236   0.004133  -0.000000   0.000000  -0.045096
    33  O    0.000000   0.000004   0.004612  -0.008068  -0.000022   0.000242
    34  H   -0.000000  -0.000000  -0.000459   0.000845   0.000007   0.000007
    35  O   -0.000000   0.005216  -0.061334  -0.000001  -0.000000   0.245822
    36  H    0.000000   0.000928   0.006477   0.000000   0.000000  -0.030629
              31         32         33         34         35         36
     1  C   -0.000069   0.000001   0.000000  -0.000000  -0.001572   0.000142
     2  C   -0.001007   0.000047  -0.000062   0.000006  -0.008268   0.000823
     3  C    0.001033  -0.000010   0.001956  -0.000013  -0.006168   0.000230
     4  C    0.000007  -0.000000   0.000334  -0.000083  -0.000503   0.000015
     5  C   -0.000000   0.000000   0.000000  -0.000001   0.000005  -0.000001
     6  C    0.000001  -0.000000  -0.000000   0.000000   0.000005  -0.000002
     7  H   -0.000001   0.000000  -0.000000   0.000000  -0.000022   0.000007
     8  H    0.002652   0.000007  -0.000001   0.000000  -0.008085   0.000845
     9  C    0.006916  -0.000086  -0.061337   0.006476   0.004619  -0.000459
    10  C   -0.000000   0.000000   0.005215   0.000928   0.000004  -0.000000
    11  H    0.000000  -0.000000  -0.000000   0.000000   0.000000  -0.000000
    12  H   -0.000000  -0.000000   0.000000  -0.000000   0.000000  -0.000000
    13  C    0.000001  -0.000000  -0.055388  -0.004576  -0.000007  -0.000000
    14  C   -0.000228   0.000002   0.245835  -0.030634   0.000242   0.000007
    15  H   -0.000000  -0.000000  -0.000062  -0.000020   0.000000  -0.000000
    16  H   -0.000000   0.000000  -0.006224   0.009452  -0.000000   0.000000
    17  C   -0.000429   0.000004   0.000005  -0.000002  -0.000000   0.000000
    18  C    0.008634  -0.000206   0.000005  -0.000001   0.000000  -0.000001
    19  C   -0.008525   0.003009  -0.000502   0.000015   0.000334  -0.000083
    20  C   -0.052544   0.000670  -0.006161   0.000229   0.001956  -0.000013
    21  C   -0.000042   0.000015  -0.008258   0.000822  -0.000062   0.000006
    22  C    0.000053  -0.000000  -0.001571   0.000141   0.000000  -0.000000
    23  H   -0.041239  -0.005496   0.000000  -0.000000  -0.000062  -0.000020
    24  H    0.000004  -0.000000   0.000000  -0.000000   0.000000  -0.000000
    25  H    0.000383  -0.000011   0.000000  -0.000000  -0.000000   0.000000
    26  C    0.469387  -0.027236   0.000004  -0.000000   0.005216   0.000928
    27  C   -0.030733   0.004133   0.004612  -0.000459  -0.061334   0.006477
    28  H    0.000016  -0.000000  -0.008068   0.000845  -0.000001   0.000000
    29  H   -0.000000   0.000000  -0.000022   0.000007  -0.000000   0.000000
    30  C    0.431943  -0.045096   0.000242   0.000007   0.245822  -0.030629
    31  C    5.143072   0.341764  -0.000007  -0.000000  -0.055397  -0.004578
    32  H    0.341764   0.605353  -0.000000   0.000000  -0.006224   0.009452
    33  O   -0.000007  -0.000000   8.271820   0.238991  -0.000000  -0.000000
    34  H   -0.000000   0.000000   0.238991   0.372449  -0.000000   0.000000
    35  O   -0.055397  -0.006224  -0.000000  -0.000000   8.271866   0.238986
    36  H   -0.004578   0.009452  -0.000000   0.000000   0.238986   0.372451
 Mulliken charges:
               1
     1  C   -0.141561
     2  C   -0.152214
     3  C    0.083986
     4  C    0.115594
     5  C   -0.185441
     6  C   -0.138220
     7  H    0.121831
     8  H    0.131680
     9  C   -0.010296
    10  C   -0.179660
    11  H    0.123975
    12  H    0.124797
    13  C   -0.211083
    14  C    0.279092
    15  H    0.133558
    16  H    0.119909
    17  C   -0.138219
    18  C   -0.185445
    19  C    0.115607
    20  C    0.083983
    21  C   -0.152234
    22  C   -0.141550
    23  H    0.133558
    24  H    0.124798
    25  H    0.123976
    26  C   -0.179677
    27  C   -0.010298
    28  H    0.131683
    29  H    0.121834
    30  C    0.279064
    31  C   -0.211066
    32  H    0.119909
    33  O   -0.621357
    34  H    0.405420
    35  O   -0.621351
    36  H    0.405418
 Sum of Mulliken charges =  -0.00000
 Mulliken charges with hydrogens summed into heavy atoms:
               1
     1  C   -0.019730
     2  C   -0.020534
     3  C    0.083986
     4  C    0.115594
     5  C   -0.061467
     6  C   -0.013423
     9  C   -0.010296
    10  C   -0.046102
    13  C   -0.091174
    14  C    0.279092
    17  C   -0.013421
    18  C   -0.061469
    19  C    0.115607
    20  C    0.083983
    21  C   -0.020550
    22  C   -0.019716
    26  C   -0.046120
    27  C   -0.010298
    30  C    0.279064
    31  C   -0.091157
    33  O   -0.215937
    35  O   -0.215933
 Electronic spatial extent (au):  <R**2>=           6020.4083
 Charge=             -0.0000 electrons
 Dipole moment (field-independent basis, Debye):
    X=              0.0004    Y=             -0.0001    Z=              0.4179  Tot=              0.4179
 Quadrupole moment (field-independent basis, Debye-Ang):
   XX=           -116.6135   YY=            -97.0424   ZZ=           -129.4839
   XY=              5.4529   XZ=             -0.0006   YZ=             -0.0007
 Traceless Quadrupole moment (field-independent basis, Debye-Ang):
   XX=             -2.2336   YY=             17.3375   ZZ=            -15.1040
   XY=              5.4529   XZ=             -0.0006   YZ=             -0.0007
 Octapole moment (field-independent basis, Debye-Ang**2):
  XXX=             -0.0010  YYY=              0.0050  ZZZ=            -12.8308  XYY=              0.0085
  XXY=              0.0002  XXZ=             21.1936  XZZ=              0.0000  YZZ=              0.0051
  YYZ=            -26.4769  XYZ=            -16.6934
 Hexadecapole moment (field-independent basis, Debye-Ang**3):
 XXXX=          -5026.5588 YYYY=          -1738.1822 ZZZZ=           -675.9713 XXXY=             63.1827
 XXXZ=             -0.0063 YYYX=             13.6933 YYYZ=             -0.0217 ZZZX=             -0.0042
 ZZZY=             -0.0118 XXYY=          -1185.9874 XXZZ=          -1045.8880 YYZZ=           -423.4241
 XXYZ=              0.0056 YYXZ=             -0.0086 ZZXY=            -33.6383
 N-N= 1.677272066320D+03 E-N=-5.494532264866D+03  KE= 9.122661968026D+02
 Unable to Open any file for archive entry.
 1\1\GINC-CCC159\SP\RB3LYP TD-FC\6-31G(d)\C20H14O2\ROOT\20-Feb-2025\0\\
 # td=(nstat=16) b3lyp/6-31g(d)\\binol | No.9\\0,1\C,0,-3.075199,-1.853
 511,-1.243481\C,0,-1.909163,-1.37693,-0.683329\C,0,-1.844741,-0.133637
 ,0.009598\C,0,-3.035719,0.670003,-0.073017\C,0,-4.240249,0.136588,-0.6
 05035\C,0,-4.277145,-1.118948,-1.161303\H,0,-3.059171,-2.802547,-1.773
 664\H,0,-1.00755,-1.951446,-0.828853\C,0,-0.644328,0.389307,0.673939\C
 ,0,-2.972598,2.046411,0.256245\H,0,-5.125533,0.76865,-0.601518\H,0,-5.
 197598,-1.516866,-1.57934\C,0,-1.777227,2.59986,0.615272\C,0,-0.627572
 ,1.786891,0.779265\H,0,-3.867524,2.657947,0.175033\H,0,-1.696295,3.665
 448,0.824121\C,0,4.277355,1.118675,-1.161252\C,0,4.2403,-0.136829,-0.6
 04928\C,0,3.035688,-0.670092,-0.072941\C,0,1.844776,0.133673,0.00958\C
 ,0,1.909367,1.376925,-0.683407\C,0,3.075489,1.853356,-1.243512\H,0,3.8
 6732,-2.658083,0.175224\H,0,5.197866,1.516475,-1.579274\H,0,5.125514,-
 0.768987,-0.601343\C,0,2.972444,-2.046468,0.256401\C,0,0.64431,-0.3891
 23,0.673893\H,0,1.007849,1.951544,-0.829016\H,0,3.059586,2.802376,-1.7
 73727\C,0,0.62746,-1.786705,0.77941\C,0,1.777025,-2.599796,0.615469\H,
 0,1.696004,-3.665361,0.824396\O,0,0.471867,2.370682,1.364175\H,0,0.310
 653,3.321593,1.459657\O,0,-0.47207,-2.370345,1.364279\H,0,-0.311119,-3
 .32133,1.459473\\Version=ES64L-G16RevC.02\State=1-A\HF=-920.972797\RMS
 D=7.015e-09\PG=C01 [X(C20H14O2)]\\@
 The archive entry for this job was punched.


 ... SUBJECTS WHICH DISCLOSE THEIR FULL POWER, MEANING AND BEAUTY AS SOON
 AS THEY ARE PRESENTED TO THE MIND HAVE VERY LITTLE OF THOSE QUALITIES
 TO DISCLOSE.
                           -- CHARLES DUTTON (1882)
 Job cpu time:       0 days  0 hours 40 minutes 46.5 seconds.
 Elapsed time:       0 days  0 hours  5 minutes 24.2 seconds.
 File lengths (MBytes):  RWF=   1295 Int=      0 D2E=      0 Chk=     78 Scr=      1
 Normal termination of Gaussian 16 at Thu Feb 20 09:32:35 2025.
