 Entering Gaussian System, Link 0=/apl/gaussian/16c02/g16/._.g16
 Initial command:
 /apl/gaussian/16c02/g16/l1.exe "/lwork/users/ux8/8279373.ccpbs1/gaussian/Gau-631242.inp" -scrdir="/lwork/users/ux8/8279373.ccpbs1/gaussian/"
 Default CPUs for threads: 16,17,18,19,20,21,22,23
 Default is to use a total of   8 processors:
                                8 via shared-memory
                                1 via Linda
 Entering Link 1 = /apl/gaussian/16c02/g16/l1.exe PID=    631243.
  
 Copyright (c) 1988-2021, Gaussian, Inc.  All Rights Reserved.
  
 This is part of the Gaussian(R) 16 program.  It is based on
 the Gaussian(R) 09 system (copyright 2009, Gaussian, Inc.),
 the Gaussian(R) 03 system (copyright 2003, Gaussian, Inc.),
 the Gaussian(R) 98 system (copyright 1998, Gaussian, Inc.),
 the Gaussian(R) 94 system (copyright 1995, Gaussian, Inc.),
 the Gaussian 92(TM) system (copyright 1992, Gaussian, Inc.),
 the Gaussian 90(TM) system (copyright 1990, Gaussian, Inc.),
 the Gaussian 88(TM) system (copyright 1988, Gaussian, Inc.),
 the Gaussian 86(TM) system (copyright 1986, Carnegie Mellon
 University), and the Gaussian 82(TM) system (copyright 1983,
 Carnegie Mellon University). Gaussian is a federally registered
 trademark of Gaussian, Inc.
  
 This software contains proprietary and confidential information,
 including trade secrets, belonging to Gaussian, Inc.
  
 This software is provided under written license and may be
 used, copied, transmitted, or stored only in accord with that
 written license.
  
 The following legend is applicable only to US Government
 contracts under FAR:
  
                    RESTRICTED RIGHTS LEGEND
  
 Use, reproduction and disclosure by the US Government is
 subject to restrictions as set forth in subparagraphs (a)
 and (c) of the Commercial Computer Software - Restricted
 Rights clause in FAR 52.227-19.
  
 Gaussian, Inc.
 340 Quinnipiac St., Bldg. 40, Wallingford CT 06492
  
  
 ---------------------------------------------------------------
 Warning -- This program may not be used in any manner that
 competes with the business of Gaussian, Inc. or will provide
 assistance to any competitor of Gaussian, Inc.  The licensee
 of this program is prohibited from giving any competitor of
 Gaussian, Inc. access to this program.  By using this program,
 the user acknowledges that Gaussian, Inc. is engaged in the
 business of creating and licensing software in the field of
 computational chemistry and represents and warrants to the
 licensee that it is not a competitor of Gaussian, Inc. and that
 it will not use this program in any manner prohibited above.
 ---------------------------------------------------------------
  

 Cite this work as:
 Gaussian 16, Revision C.02,
 M. J. Frisch, G. W. Trucks, H. B. Schlegel, G. E. Scuseria, 
 M. A. Robb, J. R. Cheeseman, G. Scalmani, V. Barone, 
 G. A. Petersson, H. Nakatsuji, X. Li, M. Caricato, A. V. Marenich, 
 J. Bloino, B. G. Janesko, R. Gomperts, B. Mennucci, H. P. Hratchian, 
 J. V. Ortiz, A. F. Izmaylov, J. L. Sonnenberg, D. Williams-Young, 
 F. Ding, F. Lipparini, F. Egidi, J. Goings, B. Peng, A. Petrone, 
 T. Henderson, D. Ranasinghe, V. G. Zakrzewski, J. Gao, N. Rega, 
 G. Zheng, W. Liang, M. Hada, M. Ehara, K. Toyota, R. Fukuda, 
 J. Hasegawa, M. Ishida, T. Nakajima, Y. Honda, O. Kitao, H. Nakai, 
 T. Vreven, K. Throssell, J. A. Montgomery, Jr., J. E. Peralta, 
 F. Ogliaro, M. J. Bearpark, J. J. Heyd, E. N. Brothers, K. N. Kudin, 
 V. N. Staroverov, T. A. Keith, R. Kobayashi, J. Normand, 
 K. Raghavachari, A. P. Rendell, J. C. Burant, S. S. Iyengar, 
 J. Tomasi, M. Cossi, J. M. Millam, M. Klene, C. Adamo, R. Cammi, 
 J. W. Ochterski, R. L. Martin, K. Morokuma, O. Farkas, 
 J. B. Foresman, and D. J. Fox, Gaussian, Inc., Wallingford CT, 2019.
 
 ******************************************
 Gaussian 16:  ES64L-G16RevC.02  7-Dec-2021
                20-Feb-2025 
 ******************************************
 %chk=binol.019.tddft.chk
 %mem=9600MB
 SetSPE:  set environment variable "OMP_PROC_BIND" = "true"
 SetSPE:  set environment variable "OMP_PLACES" = "{16},{17},{18},{19},{20},{21},{22},{23}"
 ------------------------------
 # td=(nstat=16) b3lyp/6-31g(d)
 ------------------------------
 1/38=1,172=1/1;
 2/12=2,17=6,18=5,40=1/2;
 3/5=1,6=6,7=1,11=9,25=1,30=1,74=-5/1,2,3,8;
 4//1;
 5/5=2,38=5/2;
 8/6=1,10=2,108=16/1;
 9/41=16,42=1,70=2/14;
 6/7=2,8=2,9=2,10=2/1;
 99/5=1,9=1/99;
 -------------
 binol | No.19
 -------------
 Symbolic Z-matrix:
 Charge =  0 Multiplicity = 1
 C                    -2.47693   1.99686   1.785 
 C                    -1.47609   1.18205   1.30534 
 C                    -1.71413   0.28017   0.23028 
 C                    -3.03067   0.24573  -0.33997 
 C                    -4.0402    1.09926   0.17937 
 C                    -3.7746    1.95892   1.22007 
 H                    -2.26936   2.67755   2.60667 
 H                    -0.48481   1.21969   1.745 
 C                    -0.69015  -0.57437  -0.28707 
 C                    -3.28757  -0.64508  -1.41309 
 H                    -5.03256   1.05938  -0.26467 
 H                    -4.55455   2.6077    1.6092 
 C                    -2.2973   -1.4608   -1.90201 
 C                    -0.99724  -1.42694  -1.33733 
 H                    -4.28343  -0.67511  -1.84855 
 H                    -2.5019   -2.14275  -2.72609 
 C                     3.77512   1.95776  -1.22111 
 C                     4.04045   1.09868  -0.17986 
 C                     3.03073   0.2456    0.33986 
 C                     1.71427   0.27986  -0.23061 
 C                     1.4765    1.18117  -1.30622 
 C                     2.47752   1.99556  -1.78622 
 H                     4.28314  -0.67445   1.84919 
 H                     4.55521   2.60619  -1.61053 
 H                     5.03275   1.05893   0.26434 
 C                     3.28734  -0.64453   1.4136 
 C                     0.69012  -0.57425   0.28712 
 H                     0.48528   1.21872  -1.74601 
 H                     2.27016   2.67582  -2.6083 
 C                     0.99686  -1.42602   1.33814 
 C                     2.29685  -1.45972   1.90299 
 H                     2.50127  -2.14113   2.72757 
 O                    -0.00688  -2.23853  -1.8204 
 H                    -0.36814  -2.77417  -2.54317 
 O                     0.00619  -2.23694   1.82176 
 H                     0.36715  -2.77206   2.54505 
 
                          Input orientation:                          
 ---------------------------------------------------------------------
 Center     Atomic      Atomic             Coordinates (Angstroms)
 Number     Number       Type             X           Y           Z
 ---------------------------------------------------------------------
      1          6           0       -2.476934    1.996862    1.784995
      2          6           0       -1.476093    1.182050    1.305342
      3          6           0       -1.714133    0.280174    0.230275
      4          6           0       -3.030673    0.245727   -0.339973
      5          6           0       -4.040202    1.099258    0.179366
      6          6           0       -3.774599    1.958923    1.220065
      7          1           0       -2.269362    2.677550    2.606669
      8          1           0       -0.484808    1.219694    1.745001
      9          6           0       -0.690152   -0.574370   -0.287070
     10          6           0       -3.287571   -0.645077   -1.413094
     11          1           0       -5.032565    1.059376   -0.264672
     12          1           0       -4.554545    2.607702    1.609200
     13          6           0       -2.297299   -1.460796   -1.902010
     14          6           0       -0.997237   -1.426936   -1.337333
     15          1           0       -4.283429   -0.675114   -1.848546
     16          1           0       -2.501897   -2.142748   -2.726087
     17          6           0        3.775121    1.957755   -1.221110
     18          6           0        4.040453    1.098677   -0.179864
     19          6           0        3.030726    0.245602    0.339855
     20          6           0        1.714274    0.279857   -0.230610
     21          6           0        1.476504    1.181172   -1.306223
     22          6           0        2.477525    1.995557   -1.786220
     23          1           0        4.283138   -0.674452    1.849192
     24          1           0        4.555214    2.606189   -1.610530
     25          1           0        5.032747    1.058925    0.264340
     26          6           0        3.287338   -0.644531    1.413596
     27          6           0        0.690117   -0.574245    0.287121
     28          1           0        0.485279    1.218724   -1.746014
     29          1           0        2.270161    2.675821   -2.608296
     30          6           0        0.996855   -1.426024    1.338144
     31          6           0        2.296855   -1.459721    1.902993
     32          1           0        2.501267   -2.141127    2.727570
     33          8           0       -0.006878   -2.238533   -1.820403
     34          1           0       -0.368139   -2.774165   -2.543167
     35          8           0        0.006194   -2.236944    1.821755
     36          1           0        0.367146   -2.772057    2.545054
 ---------------------------------------------------------------------
                    Distance matrix (angstroms):
                    1          2          3          4          5
     1  C    0.000000
     2  C    1.376833   0.000000
     3  C    2.438450   1.423310   0.000000
     4  C    2.808663   2.449588   1.435147   0.000000
     5  C    2.414031   2.801666   2.466594   1.420344   0.000000
     6  C    1.415811   2.427743   2.836089   2.433554   1.375726
     7  H    1.087001   2.135240   3.420956   3.895646   3.393918
     8  H    2.138728   1.085064   2.165256   3.431786   3.886714
     9  C    3.754634   2.497697   1.430534   2.480604   3.773782
    10  C    4.226671   3.742959   2.456106   1.418139   2.478929
    11  H    3.407531   3.889535   3.444433   2.162236   1.087908
    12  H    2.172670   3.406124   3.922596   3.420583   2.141116
    13  C    5.057833   4.236286   2.813841   2.426936   3.731449
    14  C    4.864240   3.744308   2.426017   2.815562   4.235761
    15  H    4.858549   4.612722   3.440255   2.166365   2.705547
    16  H    6.122651   5.325315   3.902717   3.417303   4.617212
    17  C    6.937319   5.878769   5.920533   7.072925   7.986089
    18  C    6.866130   5.713586   5.826956   7.124183   8.088636
    19  C    5.957320   4.703245   4.746250   6.099404   7.124079
    20  C    4.957519   3.653976   3.459247   4.746330   5.826963
    21  C    5.084354   3.941840   3.654147   4.703546   5.713819
    22  C    6.107392   5.084353   4.957700   5.957666   6.866414
    23  H    7.269017   6.075452   6.284860   7.689669   8.672506
    24  H    7.832750   6.848879   6.935677   8.045606   8.908184
    25  H    7.719289   6.592711   6.791760   8.126821   9.073437
    26  C    6.351514   5.102783   5.222072   6.617010   7.632625
    27  C    4.345622   2.968806   2.552191   3.861331   5.018779
    28  H    4.674209   3.627547   3.102258   3.909679   4.919486
    29  H    6.503607   5.619816   5.447128   6.256955   7.076531
    30  C    4.897248   3.594245   3.389387   4.672452   5.752544
    31  C    5.894994   4.644489   4.681158   6.026774   7.048231
    32  H    6.541704   5.374535   5.465234   6.760862   7.732028
    33  O    6.085938   4.860994   3.669317   4.184084   5.604251
    34  H    6.778105   5.629407   4.339662   4.589433   5.991631
    35  O    4.908400   3.762097   3.439217   4.478759   5.495544
    36  H    5.604379   4.535348   4.359592   5.382897   6.325210
                    6          7          8          9         10
     6  C    0.000000
     7  H    2.169063   0.000000
     8  H    3.412439   2.460173   0.000000
     9  C    4.266479   4.630617   2.718482   0.000000
    10  C    3.735176   5.313671   4.615887   2.831875   0.000000
    11  H    2.143853   4.300974   4.974594   4.639631   2.696115
    12  H    1.086580   2.494371   4.302065   5.353032   4.617365
    13  C    4.860478   6.120039   4.875535   2.444730   1.372980
    14  C    5.071298   5.832689   4.094877   1.387163   2.421296
    15  H    4.075958   5.928386   5.561780   3.919183   1.087315
    16  H    5.832289   7.192192   5.946872   3.419215   2.141087
    17  C    7.934583   7.190673   5.243047   5.217543   7.529489
    18  C    7.985916   7.076113   4.919120   5.018885   7.632920
    19  C    7.072672   6.256497   3.909254   3.861389   6.617176
    20  C    5.920426   5.446874   3.101982   2.552284   5.222282
    21  C    5.878870   5.619732   3.627423   2.969006   5.103236
    22  C    6.937445   6.503501   4.674067   4.345820   6.352047
    23  H    8.500446   7.398983   5.131467   5.413617   8.243725
    24  H    8.821395   8.022761   6.211584   6.275457   8.492290
    25  H    8.904648   7.837554   5.715034   5.976895   8.657084
    26  C    7.529036   6.583051   4.220693   4.326386   7.156787
    27  C    5.217376   4.971216   2.593083   1.494937   4.326402
    28  H    5.243289   5.353697   3.623293   2.593326   4.221254
    29  H    7.190926   6.913981   5.353630   4.971447   6.583711
    30  C    5.851374   5.395985   3.059523   2.492514   5.151261
    31  C    7.001148   6.201815   3.865472   3.808206   6.545677
    32  H    7.646534   6.781826   4.601870   4.661324   7.272820
    33  O    6.407714   6.991829   4.989976   2.363771   3.669870
    34  H    6.940317   7.736708   5.861135   3.167454   3.785917
    35  O    5.679941   5.472339   3.492180   2.774201   4.883357
    36  H    6.425871   6.054188   4.159325   3.737464   5.792058
                   11         12         13         14         15
    11  H    0.000000
    12  H    2.477340   0.000000
    13  C    4.063720   5.828931   0.000000
    14  C    4.859652   6.133091   1.417804   0.000000
    15  H    2.465424   4.775604   2.136555   3.409638   0.000000
    16  H    4.766177   6.750915   1.089046   2.169107   2.469389
    17  C    8.904897   8.821362   7.001743   5.851926   8.500935
    18  C    9.073499   8.907968   7.048673   5.752980   8.672822
    19  C    8.126767   8.045315   6.027073   4.672775   7.689843
    20  C    6.791807   6.935550   4.681471   3.389730   6.285072
    21  C    6.592999   6.848958   4.645056   3.594800   6.075915
    22  C    7.719650   7.832854   5.895653   4.897849   7.269585
    23  H    9.708599   9.430523   7.615248   6.213094   9.330559
    24  H    9.804564   9.662007   7.973849   6.868074   9.431077
    25  H   10.079204   9.804261   8.048083   6.716068   9.708878
    26  C    8.656828   8.491785   6.545816   5.151442   8.243726
    27  C    5.976812   6.275282   3.808270   2.492608   5.413632
    28  H    5.715450   6.211807   3.866122   3.060129   5.132028
    29  H    7.838066   8.023000   6.202591   5.396652   7.399698
    30  C    6.715664   6.867493   4.620742   3.336852   6.212911
    31  C    8.047672   7.973200   5.965258   4.620804   7.615103
    32  H    8.715237   8.578264   6.702395   5.410456   8.313972
    33  O    6.209189   7.478599   2.420240   1.368524   4.553456
    34  H    6.453251   7.983272   2.420264   1.914374   4.496444
    35  O    6.372440   6.657035   4.446899   3.412158   5.857584
    36  H    7.192449   7.351236   5.347434   4.329413   6.732662
                   16         17         18         19         20
    16  H    0.000000
    17  C    7.647224   0.000000
    18  C    7.732557   1.375721   0.000000
    19  C    6.761223   2.433558   1.420350   0.000000
    20  C    5.465576   2.836110   2.466607   1.435148   0.000000
    21  C    5.375140   2.427749   2.801665   2.449586   1.423322
    22  C    6.542443   1.415816   2.414025   2.808660   2.438463
    23  H    8.314191   4.075948   2.705541   2.166364   3.440254
    24  H    8.579026   1.086582   2.141116   3.420590   3.922619
    25  H    8.715746   2.143847   1.087908   2.162241   3.444443
    26  C    7.273024   3.735171   2.478925   1.418135   2.456102
    27  C    4.661392   4.266501   3.773790   2.480601   1.430536
    28  H    4.602527   3.412441   3.886708   3.431780   2.165260
    29  H    6.782700   2.169057   3.393906   3.895641   3.420971
    30  C    5.410447   5.071341   4.235794   2.815590   2.426048
    31  C    6.702457   4.860497   3.731465   2.426952   2.813857
    32  H    7.400948   5.832290   4.617207   3.417307   3.902736
    33  O    2.656042   5.680801   5.496292   4.479361   3.439781
    34  H    2.232727   6.426936   6.326120   5.383595   4.360208
    35  O    5.194445   6.407756   5.604292   4.184120   3.669336
    36  H    6.034266   6.940418   5.991740   4.589534   4.339729
                   21         22         23         24         25
    21  C    0.000000
    22  C    1.376831   0.000000
    23  H    4.612719   4.858540   0.000000
    24  H    3.406131   2.172678   4.775595   0.000000
    25  H    3.889534   3.407526   2.465414   2.477338   0.000000
    26  C    3.742957   4.226663   1.087316   4.617362   2.696109
    27  C    2.497727   3.754657   3.919172   5.353057   4.639633
    28  H    1.085059   2.138722   5.561776   4.302068   4.974588
    29  H    2.135243   1.086999   5.928373   2.494364   4.300962
    30  C    3.744357   4.864283   3.409646   6.133135   4.859676
    31  C    4.236314   5.057853   2.136554   5.828950   4.063726
    32  H    5.325345   6.122664   2.469362   6.750912   4.766154
    33  O    3.762869   4.909271   5.858030   6.657932   6.373163
    34  H    4.536235   5.605446   6.733201   7.352376   7.193347
    35  O    4.861026   6.085970   4.553502   7.478643   6.209229
    36  H    5.629479   6.778184   4.496572   7.983378   6.453364
                   26         27         28         29         30
    26  C    0.000000
    27  C    2.831862   0.000000
    28  H    4.615884   2.718517   0.000000
    29  H    5.313662   4.630649   2.460176   0.000000
    30  C    2.421309   1.387179   4.094928   5.832738   0.000000
    31  C    1.372990   2.444733   4.875564   6.120061   1.417812
    32  H    2.141083   3.419236   5.946912   7.192209   2.169132
    33  O    4.883795   2.774403   3.492904   5.473258   3.412341
    34  H    5.792566   3.737658   4.160161   6.055346   4.329581
    35  O    3.669915   2.363772   4.990004   6.991864   1.368532
    36  H    3.786038   3.167483   5.861190   7.736786   1.914411
                   31         32         33         34         35
    31  C    0.000000
    32  H    1.089048   0.000000
    33  O    4.447180   5.194645   0.000000
    34  H    5.347737   6.034476   0.969432   0.000000
    35  O    2.420290   2.656138   3.642182   4.413760   0.000000
    36  H    2.420381   2.232903   4.413814   5.141074   0.969430
                   36
    36  H    0.000000
 Stoichiometry    C20H14O2
 Framework group  C1[X(C20H14O2)]
 Deg. of freedom   102
 Full point group                 C1      NOp   1
 Largest Abelian subgroup         C1      NOp   1
 Largest concise Abelian subgroup C1      NOp   1
                         Standard orientation:                         
 ---------------------------------------------------------------------
 Center     Atomic      Atomic             Coordinates (Angstroms)
 Number     Number       Type             X           Y           Z
 ---------------------------------------------------------------------
      1          6           0        2.476934   -1.996862    1.784995
      2          6           0        1.476093   -1.182050    1.305342
      3          6           0        1.714133   -0.280174    0.230275
      4          6           0        3.030673   -0.245727   -0.339973
      5          6           0        4.040202   -1.099258    0.179366
      6          6           0        3.774599   -1.958923    1.220065
      7          1           0        2.269362   -2.677550    2.606669
      8          1           0        0.484808   -1.219694    1.745001
      9          6           0        0.690152    0.574370   -0.287070
     10          6           0        3.287571    0.645077   -1.413094
     11          1           0        5.032565   -1.059376   -0.264672
     12          1           0        4.554545   -2.607702    1.609200
     13          6           0        2.297299    1.460796   -1.902010
     14          6           0        0.997237    1.426936   -1.337333
     15          1           0        4.283429    0.675114   -1.848546
     16          1           0        2.501897    2.142748   -2.726087
     17          6           0       -3.775121   -1.957755   -1.221110
     18          6           0       -4.040453   -1.098677   -0.179864
     19          6           0       -3.030726   -0.245602    0.339855
     20          6           0       -1.714274   -0.279857   -0.230610
     21          6           0       -1.476504   -1.181172   -1.306223
     22          6           0       -2.477525   -1.995557   -1.786220
     23          1           0       -4.283138    0.674452    1.849192
     24          1           0       -4.555214   -2.606189   -1.610530
     25          1           0       -5.032747   -1.058925    0.264340
     26          6           0       -3.287338    0.644531    1.413596
     27          6           0       -0.690117    0.574245    0.287121
     28          1           0       -0.485279   -1.218724   -1.746014
     29          1           0       -2.270161   -2.675821   -2.608296
     30          6           0       -0.996855    1.426024    1.338144
     31          6           0       -2.296855    1.459721    1.902993
     32          1           0       -2.501267    2.141127    2.727570
     33          8           0        0.006878    2.238533   -1.820403
     34          1           0        0.368139    2.774165   -2.543167
     35          8           0       -0.006194    2.236944    1.821755
     36          1           0       -0.367146    2.772057    2.545054
 ---------------------------------------------------------------------
 Rotational constants (GHZ):           0.4617170           0.2194241           0.2114680
 Standard basis: 6-31G(d) (6D, 7F)
 There are   358 symmetry adapted cartesian basis functions of A   symmetry.
 There are   358 symmetry adapted basis functions of A   symmetry.
   358 basis functions,   672 primitive gaussians,   358 cartesian basis functions
    75 alpha electrons       75 beta electrons
       nuclear repulsion energy      1672.2912282528 Hartrees.
 NAtoms=   36 NActive=   36 NUniq=   36 SFac= 1.00D+00 NAtFMM=   60 NAOKFM=F Big=F
 Integral buffers will be    131072 words long.
 Regular integral format.
 Two-electron integral symmetry is turned on.
 One-electron integrals computed using PRISM.
 NBasis=   358 RedAO= T EigKep=  2.31D-04  NBF=   358
 NBsUse=   358 1.00D-06 EigRej= -1.00D+00 NBFU=   358
 ExpMin= 1.61D-01 ExpMax= 5.48D+03 ExpMxC= 8.25D+02 IAcc=3 IRadAn=         5 AccDes= 0.00D+00
 Harris functional with IExCor=  402 and IRadAn=       5 diagonalized for initial guess.
 HarFok:  IExCor=  402 AccDes= 0.00D+00 IRadAn=         5 IDoV= 1 UseB2=F ITyADJ=14
 ICtDFT=  3500011 ScaDFX=  1.000000  1.000000  1.000000  1.000000
 FoFCou: FMM=F IPFlag=           0 FMFlag=      100000 FMFlg1=           0
         NFxFlg=           0 DoJE=T BraDBF=F KetDBF=T FulRan=T
         wScrn=  0.000000 ICntrl=       500 IOpCl=  0 I1Cent=   200000004 NGrid=           0
         NMat0=    1 NMatS0=      1 NMatT0=    0 NMatD0=    1 NMtDS0=    0 NMtDT0=    0
 Petite list used in FoFCou.
 Requested convergence on RMS density matrix=1.00D-08 within 128 cycles.
 Requested convergence on MAX density matrix=1.00D-06.
 Requested convergence on             energy=1.00D-06.
 No special actions if energy rises.
 Integral accuracy reduced to 1.0D-05 until final iterations.
 Initial convergence to 1.0D-05 achieved.  Increase integral accuracy.
 SCF Done:  E(RB3LYP) =  -921.015741623     A.U. after   14 cycles
            NFock= 14  Conv=0.69D-08     -V/T= 2.0095
 DoSCS=F DFT=T ScalE2(SS,OS)=  1.000000  1.000000
 ExpMin= 1.61D-01 ExpMax= 5.48D+03 ExpMxC= 8.25D+02 IAcc=3 IRadAn=         5 AccDes= 0.00D+00
 HarFok:  IExCor=  205 AccDes= 0.00D+00 IRadAn=         5 IDoV=-2 UseB2=F ITyADJ=14
 ICtDFT= 12500011 ScaDFX=  1.000000  1.000000  1.000000  1.000000
 GSVD:  LWork=        -660 too small for GESVD, short by        2750 words or        2750 for optimal perf.
 Range of M.O.s used for correlation:    23   358
 NBasis=   358 NAE=    75 NBE=    75 NFC=    22 NFV=     0
 NROrb=    336 NOA=    53 NOB=    53 NVA=   283 NVB=   283
 Orbital symmetries:
       Occupied  (A) (A) (A) (A) (A) (A) (A) (A) (A) (A) (A) (A)
                 (A) (A) (A) (A) (A) (A) (A) (A) (A) (A) (A) (A)
                 (A) (A) (A) (A) (A) (A) (A) (A) (A) (A) (A) (A)
                 (A) (A) (A) (A) (A) (A) (A) (A) (A) (A) (A) (A)
                 (A) (A) (A) (A) (A) (A) (A) (A) (A) (A) (A) (A)
                 (A) (A) (A) (A) (A) (A) (A) (A) (A) (A) (A) (A)
                 (A) (A) (A)
       Virtual   (A) (A) (A) (A) (A) (A) (A) (A) (A) (A) (A) (A)
                 (A) (A) (A) (A) (A) (A) (A) (A) (A) (A) (A) (A)
                 (A) (A) (A) (A) (A) (A) (A) (A) (A) (A) (A) (A)
                 (A) (A) (A) (A) (A) (A) (A) (A) (A) (A) (A) (A)
                 (A) (A) (A) (A) (A) (A) (A) (A) (A) (A) (A) (A)
                 (A) (A) (A) (A) (A) (A) (A) (A) (A) (A) (A) (A)
                 (A) (A) (A) (A) (A) (A) (A) (A) (A) (A) (A) (A)
                 (A) (A) (A) (A) (A) (A) (A) (A) (A) (A) (A) (A)
                 (A) (A) (A) (A) (A) (A) (A) (A) (A) (A) (A) (A)
                 (A) (A) (A) (A) (A) (A) (A) (A) (A) (A) (A) (A)
                 (A) (A) (A) (A) (A) (A) (A) (A) (A) (A) (A) (A)
                 (A) (A) (A) (A) (A) (A) (A) (A) (A) (A) (A) (A)
                 (A) (A) (A) (A) (A) (A) (A) (A) (A) (A) (A) (A)
                 (A) (A) (A) (A) (A) (A) (A) (A) (A) (A) (A) (A)
                 (A) (A) (A) (A) (A) (A) (A) (A) (A) (A) (A) (A)
                 (A) (A) (A) (A) (A) (A) (A) (A) (A) (A) (A) (A)
                 (A) (A) (A) (A) (A) (A) (A) (A) (A) (A) (A) (A)
                 (A) (A) (A) (A) (A) (A) (A) (A) (A) (A) (A) (A)
                 (A) (A) (A) (A) (A) (A) (A) (A) (A) (A) (A) (A)
                 (A) (A) (A) (A) (A) (A) (A) (A) (A) (A) (A) (A)
                 (A) (A) (A) (A) (A) (A) (A) (A) (A) (A) (A) (A)
                 (A) (A) (A) (A) (A) (A) (A) (A) (A) (A) (A) (A)
                 (A) (A) (A) (A) (A) (A) (A) (A) (A) (A) (A) (A)
                 (A) (A) (A) (A) (A) (A) (A)
    64 initial guesses have been made.
 Convergence on wavefunction:    0.001000000000000
 Iteration     1 Dimension    64 NMult     0 NNew     64
 CISAX will form    64 AO SS matrices at one time.
 New state      2 was old state      3
 New state      3 was old state      4
 New state      4 was old state      2
 New state      7 was old state      9
 New state      8 was old state     11
 New state      9 was old state     12
 New state     11 was old state     17
 New state     12 was old state     19
 New state     15 was old state     21
 New state     16 was old state     23
 Iteration     2 Dimension    96 NMult    64 NNew     32
 New state      5 was old state      7
 New state      6 was old state      8
 New state      7 was old state      6
 New state      8 was old state      5
 New state      9 was old state     10
 New state     10 was old state      9
 New state     13 was old state     16
 New state     14 was old state     13
 New state     16 was old state     14
 Iteration     3 Dimension   128 NMult    96 NNew     32
 Iteration     4 Dimension   158 NMult   128 NNew     30
 Iteration     5 Dimension   176 NMult   158 NNew     18
 Iteration     6 Dimension   182 NMult   176 NNew      6
 Iteration     7 Dimension   184 NMult   182 NNew      2
 ***********************************************************************
 Excited states from <AA,BB:AA,BB> singles matrix:
 ***********************************************************************
 
 Ground to excited state transition densities written to RWF  633
 Ground to excited state transition electric dipole moments (Au):
       state          X           Y           Z        Dip. S.      Osc.
         1         0.4439     -0.0000     -0.1251      0.2127      0.0202
         2        -0.0012     -0.0312      0.0004      0.0010      0.0001
         3         1.0799      0.0002     -0.5753      1.4972      0.1493
         4        -0.0000      0.3485      0.0002      0.1215      0.0123
         5         0.5397     -0.0000     -0.0863      0.2987      0.0330
         6        -0.0007      0.0058      0.0000      0.0000      0.0000
         7        -0.1184     -0.0031      0.0614      0.0178      0.0021
         8        -0.0052      0.0716      0.0027      0.0052      0.0006
         9         0.0023     -0.0884      0.0023      0.0078      0.0009
        10         0.1582      0.0012      0.1571      0.0497      0.0060
        11         0.8906     -0.0001      0.8062      1.4431      0.1953
        12         0.0000     -0.8222     -0.0001      0.6760      0.0919
        13         0.3343      0.0057     -0.1831      0.1453      0.0204
        14        -0.0037      0.6715      0.0006      0.4509      0.0635
        15         0.0114     -0.0185      0.0145      0.0007      0.0001
        16        -0.7134     -0.0015     -0.7885      1.1308      0.1595
 Ground to excited state transition velocity dipole moments (Au):
       state          X           Y           Z        Dip. S.      Osc.
         1        -0.0640      0.0000      0.0215      0.0046      0.0214
         2         0.0002      0.0041     -0.0001      0.0000      0.0001
         3        -0.1806     -0.0000      0.0856      0.0399      0.1781
         4         0.0000     -0.0457     -0.0000      0.0021      0.0092
         5        -0.0956      0.0000      0.0197      0.0095      0.0383
         6         0.0001      0.0019     -0.0000      0.0000      0.0000
         7         0.0224      0.0006     -0.0118      0.0006      0.0024
         8         0.0010     -0.0142     -0.0005      0.0002      0.0008
         9        -0.0003      0.0090     -0.0003      0.0001      0.0003
        10        -0.0203     -0.0001     -0.0218      0.0009      0.0033
        11        -0.1795      0.0000     -0.1541      0.0560      0.1839
        12        -0.0000      0.1588      0.0000      0.0252      0.0824
        13        -0.0811     -0.0012      0.0323      0.0076      0.0241
        14         0.0009     -0.1449     -0.0001      0.0210      0.0663
        15        -0.0024      0.0013     -0.0031      0.0000      0.0001
        16         0.1500      0.0003      0.1684      0.0509      0.1603
 Ground to excited state transition magnetic dipole moments (Au):
       state          X           Y           Z
         1         0.0277      0.0002     -0.1653
         2        -0.0000      0.0301      0.0005
         3        -0.1337      0.0001     -0.2868
         4        -0.0000     -0.7089     -0.0001
         5         0.0617      0.0000      0.1870
         6        -0.0001     -0.0012     -0.0004
         7         0.0290      0.0042      0.0344
         8         0.0013     -0.0960      0.0015
         9         0.0000     -0.0479      0.0014
        10         0.0001      0.0007      0.0948
        11         0.2819     -0.0006      1.3240
        12         0.0001      1.0091      0.0006
        13         0.1129     -0.0057      0.2007
        14        -0.0013     -0.6748     -0.0036
        15         0.0032      0.0916      0.0185
        16        -0.1740      0.0036     -1.0252
 Ground to excited state transition velocity quadrupole moments (Au):
       state          XX          YY          ZZ          XY          XZ          YZ
         1        -0.0002     -0.0001      0.0000      0.0458     -0.0001      0.0675
         2        -0.0653      0.0001      0.0018     -0.0001     -0.0287     -0.0002
         3        -0.0002     -0.0001      0.0001      0.0034      0.0000      0.1860
         4        -0.9148      0.0249     -0.0423     -0.0000      0.4237     -0.0000
         5         0.0008     -0.0001     -0.0001      0.1863     -0.0001      0.0486
         6         0.6310     -0.0156     -0.0739     -0.0003     -0.0729     -0.0000
         7         0.0045     -0.0005     -0.0003      0.0275     -0.0039     -0.0073
         8        -0.1032      0.0130      0.0072      0.0012      0.0894     -0.0003
         9        -0.0528      0.0053      0.0436      0.0031     -0.0883      0.0001
        10         0.0009     -0.0001     -0.0006      0.2117      0.0013      0.0073
        11         0.0004     -0.0001      0.0000      0.8908      0.0004      0.1284
        12        -0.7652     -0.0643      0.0689      0.0004     -0.5388      0.0000
        13         0.0036      0.0002     -0.0004     -0.1479      0.0052      0.1531
        14         0.4291      0.0348     -0.0585     -0.0003      0.6187     -0.0016
        15         0.4907     -0.1000      0.0129      0.0164     -0.1893      0.0023
        16         0.0091     -0.0021      0.0004     -0.9193     -0.0055     -0.1279
 <0|del|b> * <b|rxdel|0> + <0|del|b> * <b|delr+rdel|0>
 Rotatory Strengths (R) in cgs (10**-40 erg-esu-cm/Gauss)
       state          XX          YY          ZZ    R(velocity)    E-M Angle
         1        -6.3876    -26.4369      6.3253     -8.8331      118.10
         2         0.5963     -0.0002      0.0141      0.2034       90.00
         3       -57.3829    -81.0797    136.5072     -0.6518       90.37
         4       120.8014      0.0000     30.4193     50.4069       90.00
         5        15.6771    -22.4457     -2.6585     -3.1423       96.61
         6         0.2878     -0.0000     -0.2976     -0.0032       90.00
         7        -1.4645      0.8163      1.6368      0.3295       77.61
         8         5.2893      0.0016      0.1919      1.8276        4.38
         9         0.7074      0.0009     -2.3979     -0.5632       90.00
        10       -13.1120      4.7048      0.2894     -2.7059      137.05
        11      -594.7476   -244.5944    -47.9892   -295.7771      142.67
        12       426.0560      0.0000    129.4392    185.1651       90.00
        13         2.8808    -17.2863      5.4735     -2.9774       97.61
        14       313.9236     -0.0039     13.6275    109.1824        0.54
        15         0.4092     -0.0333     -0.2096      0.0554       90.00
        16      -547.3116   -105.5184    -11.5702   -221.4668      147.93
 1/2[<0|r|b>*<b|rxdel|0> + (<0|rxdel|b>*<b|r|0>)*]
 Rotatory Strengths (R) in cgs (10**-40 erg-esu-cm/Gauss)
       state          XX          YY          ZZ     R(length)
         1        -8.7045      0.0000    -14.6215     -7.7753
         2        -0.0000      0.6648     -0.0001      0.2215
         3       102.1323     -0.0000   -116.6967     -4.8548
         4        -0.0000    174.7166      0.0000     58.2389
         5       -23.5349      0.0000     11.4139     -4.0403
         6        -0.0000      0.0050      0.0000      0.0017
         7         2.4306      0.0093     -1.4925      0.3158
         8         0.0047      4.8630     -0.0030      1.6216
         9        -0.0000     -2.9977     -0.0023     -1.0000
        10        -0.0063     -0.0006    -10.5341     -3.5137
        11      -177.5062     -0.0001   -754.8478   -310.7847
        12        -0.0000    586.6855      0.0000    195.5618
        13       -26.6797      0.0233     25.9899     -0.2221
        14        -0.0035    320.4418      0.0015    106.8133
        15        -0.0262      1.1951     -0.1900      0.3263
        16       -87.7924      0.0038   -571.6523   -219.8137
  1/2[<0|del|b>*<b|r|0> + (<0|r|b>*<b|del|0>)*] (Au)
       state          X           Y           Z        Dip. S.   Osc.(frdel)
         1        -0.0284     -0.0000     -0.0027      0.0311      0.0207
         2        -0.0000     -0.0001     -0.0000      0.0001      0.0001
         3        -0.1950     -0.0000     -0.0493      0.2443      0.1629
         4        -0.0000     -0.0159     -0.0000      0.0159      0.0106
         5        -0.0516     -0.0000     -0.0017      0.0533      0.0355
         6        -0.0000      0.0000     -0.0000     -0.0000     -0.0000
         7        -0.0027     -0.0000     -0.0007      0.0034      0.0023
         8        -0.0000     -0.0010     -0.0000      0.0010      0.0007
         9        -0.0000     -0.0008     -0.0000      0.0008      0.0005
        10        -0.0032     -0.0000     -0.0034      0.0066      0.0044
        11        -0.1598     -0.0000     -0.1243      0.2841      0.1894
        12        -0.0000     -0.1305     -0.0000      0.1305      0.0870
        13        -0.0271     -0.0000     -0.0059      0.0330      0.0220
        14        -0.0000     -0.0973     -0.0000      0.0973      0.0649
        15        -0.0000     -0.0000     -0.0000      0.0001      0.0001
        16        -0.1070     -0.0000     -0.1328      0.2398      0.1599

 Excitation energies and oscillator strengths:
 
 Excited State   1:      Singlet-A      3.8710 eV  320.29 nm  f=0.0202  <S**2>=0.000
      74 -> 77        -0.35138
      75 -> 76         0.60772
 This state for optimization and/or second-order correction.
 Total Energy, E(TD-HF/TD-DFT) =  -920.873483159    
 Copying the excited state density for this state as the 1-particle RhoCI density.
 
 Excited State   2:      Singlet-A      3.8837 eV  319.24 nm  f=0.0001  <S**2>=0.000
      74 -> 76         0.51145
      75 -> 77        -0.48429
 
 Excited State   3:      Singlet-A      4.0693 eV  304.68 nm  f=0.1493  <S**2>=0.000
      72 -> 78        -0.10090
      74 -> 77         0.58576
      75 -> 76         0.31645
      75 -> 78        -0.12916
 
 Excited State   4:      Singlet-A      4.1193 eV  300.98 nm  f=0.0123  <S**2>=0.000
      72 -> 77        -0.12102
      72 -> 79        -0.10871
      73 -> 78         0.12356
      74 -> 76         0.44117
      74 -> 78        -0.12443
      75 -> 77         0.47489
 
 Excited State   5:      Singlet-A      4.5147 eV  274.62 nm  f=0.0330  <S**2>=0.000
      72 -> 76         0.37888
      73 -> 77        -0.34792
      74 -> 77         0.13547
      74 -> 79         0.23482
      75 -> 76         0.13502
      75 -> 78         0.36950
 
 Excited State   6:      Singlet-A      4.5298 eV  273.70 nm  f=0.0000  <S**2>=0.000
      72 -> 77        -0.31450
      73 -> 76         0.39036
      74 -> 76        -0.16397
      74 -> 78        -0.32621
      75 -> 77        -0.14963
      75 -> 79        -0.29480
 
 Excited State   7:      Singlet-A      4.7804 eV  259.36 nm  f=0.0021  <S**2>=0.000
      72 -> 76         0.48861
      73 -> 77         0.50834
 
 Excited State   8:      Singlet-A      4.7814 eV  259.31 nm  f=0.0006  <S**2>=0.000
      72 -> 77         0.51642
      73 -> 76         0.47816
 
 Excited State   9:      Singlet-A      4.8918 eV  253.45 nm  f=0.0009  <S**2>=0.000
      74 -> 78        -0.49049
      75 -> 79         0.50543
 
 Excited State  10:      Singlet-A      4.8960 eV  253.23 nm  f=0.0060  <S**2>=0.000
      74 -> 79         0.52236
      75 -> 78        -0.46467
 
 Excited State  11:      Singlet-A      5.5230 eV  224.49 nm  f=0.1953  <S**2>=0.000
      70 -> 77        -0.24025
      71 -> 76         0.34083
      72 -> 76         0.15962
      73 -> 77        -0.15926
      74 -> 79        -0.18159
      74 -> 81         0.25796
      75 -> 78        -0.16677
      75 -> 80         0.37703
 
 Excited State  12:      Singlet-A      5.5494 eV  223.42 nm  f=0.0919  <S**2>=0.000
      70 -> 76        -0.29002
      71 -> 77         0.37161
      72 -> 77         0.14828
      73 -> 76        -0.13654
      74 -> 78        -0.14330
      74 -> 80         0.29182
      75 -> 79        -0.13659
      75 -> 81         0.31981
 
 Excited State  13:      Singlet-A      5.7397 eV  216.01 nm  f=0.0204  <S**2>=0.000
      70 -> 77        -0.12183
      71 -> 76        -0.34505
      72 -> 78         0.26669
      74 -> 81        -0.26599
      75 -> 80         0.45090
 
 Excited State  14:      Singlet-A      5.7443 eV  215.84 nm  f=0.0635  <S**2>=0.000
      70 -> 76         0.10345
      71 -> 77         0.17288
      72 -> 79        -0.21804
      73 -> 78        -0.31129
      74 -> 80         0.43565
      75 -> 81        -0.28877
 
 Excited State  15:      Singlet-A      5.7538 eV  215.48 nm  f=0.0001  <S**2>=0.000
      72 -> 79         0.28557
      73 -> 78         0.49749
      74 -> 80         0.23507
      75 -> 81        -0.30768
 
 Excited State  16:      Singlet-A      5.7561 eV  215.40 nm  f=0.1595  <S**2>=0.000
      71 -> 76         0.29715
      72 -> 76        -0.11556
      72 -> 78         0.38786
      73 -> 77         0.12236
      73 -> 79         0.42619
      74 -> 79         0.14764
      75 -> 78         0.13615
 SavETr:  write IOETrn=   770 NScale= 10 NData=  16 NLR=1 NState=   16 LETran=     298.

 **********************************************************************

            Population analysis using the SCF Density.

 **********************************************************************

 Orbital symmetries:
       Occupied  (A) (A) (A) (A) (A) (A) (A) (A) (A) (A) (A) (A)
                 (A) (A) (A) (A) (A) (A) (A) (A) (A) (A) (A) (A)
                 (A) (A) (A) (A) (A) (A) (A) (A) (A) (A) (A) (A)
                 (A) (A) (A) (A) (A) (A) (A) (A) (A) (A) (A) (A)
                 (A) (A) (A) (A) (A) (A) (A) (A) (A) (A) (A) (A)
                 (A) (A) (A) (A) (A) (A) (A) (A) (A) (A) (A) (A)
                 (A) (A) (A)
       Virtual   (A) (A) (A) (A) (A) (A) (A) (A) (A) (A) (A) (A)
                 (A) (A) (A) (A) (A) (A) (A) (A) (A) (A) (A) (A)
                 (A) (A) (A) (A) (A) (A) (A) (A) (A) (A) (A) (A)
                 (A) (A) (A) (A) (A) (A) (A) (A) (A) (A) (A) (A)
                 (A) (A) (A) (A) (A) (A) (A) (A) (A) (A) (A) (A)
                 (A) (A) (A) (A) (A) (A) (A) (A) (A) (A) (A) (A)
                 (A) (A) (A) (A) (A) (A) (A) (A) (A) (A) (A) (A)
                 (A) (A) (A) (A) (A) (A) (A) (A) (A) (A) (A) (A)
                 (A) (A) (A) (A) (A) (A) (A) (A) (A) (A) (A) (A)
                 (A) (A) (A) (A) (A) (A) (A) (A) (A) (A) (A) (A)
                 (A) (A) (A) (A) (A) (A) (A) (A) (A) (A) (A) (A)
                 (A) (A) (A) (A) (A) (A) (A) (A) (A) (A) (A) (A)
                 (A) (A) (A) (A) (A) (A) (A) (A) (A) (A) (A) (A)
                 (A) (A) (A) (A) (A) (A) (A) (A) (A) (A) (A) (A)
                 (A) (A) (A) (A) (A) (A) (A) (A) (A) (A) (A) (A)
                 (A) (A) (A) (A) (A) (A) (A) (A) (A) (A) (A) (A)
                 (A) (A) (A) (A) (A) (A) (A) (A) (A) (A) (A) (A)
                 (A) (A) (A) (A) (A) (A) (A) (A) (A) (A) (A) (A)
                 (A) (A) (A) (A) (A) (A) (A) (A) (A) (A) (A) (A)
                 (A) (A) (A) (A) (A) (A) (A) (A) (A) (A) (A) (A)
                 (A) (A) (A) (A) (A) (A) (A) (A) (A) (A) (A) (A)
                 (A) (A) (A) (A) (A) (A) (A) (A) (A) (A) (A) (A)
                 (A) (A) (A) (A) (A) (A) (A) (A) (A) (A) (A) (A)
                 (A) (A) (A) (A) (A) (A) (A)
 The electronic state is 1-A.
 Alpha  occ. eigenvalues --  -19.17439 -19.17439 -10.24562 -10.24562 -10.19218
 Alpha  occ. eigenvalues --  -10.19217 -10.19124 -10.19124 -10.19060 -10.19059
 Alpha  occ. eigenvalues --  -10.18788 -10.18788 -10.18647 -10.18619 -10.18279
 Alpha  occ. eigenvalues --  -10.18278 -10.18139 -10.18139 -10.18009 -10.18009
 Alpha  occ. eigenvalues --  -10.17697 -10.17696  -1.05629  -1.05420  -0.86995
 Alpha  occ. eigenvalues --   -0.85900  -0.81375  -0.80805  -0.78614  -0.75059
 Alpha  occ. eigenvalues --   -0.72935  -0.72873  -0.72065  -0.70169  -0.62948
 Alpha  occ. eigenvalues --   -0.62040  -0.61482  -0.61027  -0.59779  -0.56753
 Alpha  occ. eigenvalues --   -0.54495  -0.54383  -0.51483  -0.49776  -0.49403
 Alpha  occ. eigenvalues --   -0.48698  -0.46384  -0.46245  -0.44108  -0.42886
 Alpha  occ. eigenvalues --   -0.42597  -0.42059  -0.41530  -0.41527  -0.40993
 Alpha  occ. eigenvalues --   -0.39682  -0.39672  -0.39302  -0.38615  -0.36564
 Alpha  occ. eigenvalues --   -0.35979  -0.35785  -0.35199  -0.34088  -0.34008
 Alpha  occ. eigenvalues --   -0.33243  -0.31262  -0.30065  -0.30054  -0.27023
 Alpha  occ. eigenvalues --   -0.26634  -0.22645  -0.22580  -0.19823  -0.19610
 Alpha virt. eigenvalues --   -0.03102  -0.02923   0.00354   0.00862   0.03913
 Alpha virt. eigenvalues --    0.04127   0.06997   0.07113   0.10220   0.10431
 Alpha virt. eigenvalues --    0.11231   0.11359   0.11820   0.12030   0.14459
 Alpha virt. eigenvalues --    0.15391   0.17514   0.17542   0.18831   0.18948
 Alpha virt. eigenvalues --    0.19904   0.19988   0.20813   0.20868   0.22590
 Alpha virt. eigenvalues --    0.24074   0.26327   0.27452   0.27932   0.29423
 Alpha virt. eigenvalues --    0.30862   0.31619   0.32110   0.33309   0.33314
 Alpha virt. eigenvalues --    0.34500   0.36519   0.36567   0.38464   0.38704
 Alpha virt. eigenvalues --    0.41265   0.46159   0.49269   0.49331   0.50109
 Alpha virt. eigenvalues --    0.51202   0.52317   0.52456   0.52762   0.53018
 Alpha virt. eigenvalues --    0.53910   0.54200   0.55028   0.55138   0.55396
 Alpha virt. eigenvalues --    0.56034   0.56611   0.57146   0.57709   0.59245
 Alpha virt. eigenvalues --    0.59639   0.60091   0.60386   0.60722   0.60913
 Alpha virt. eigenvalues --    0.61123   0.61635   0.61864   0.62195   0.62969
 Alpha virt. eigenvalues --    0.62980   0.64128   0.64195   0.64832   0.65821
 Alpha virt. eigenvalues --    0.66402   0.67200   0.68258   0.68588   0.70113
 Alpha virt. eigenvalues --    0.70448   0.74408   0.75404   0.75521   0.77094
 Alpha virt. eigenvalues --    0.78588   0.80270   0.80769   0.81857   0.82625
 Alpha virt. eigenvalues --    0.83383   0.84446   0.84853   0.85255   0.85294
 Alpha virt. eigenvalues --    0.86136   0.86331   0.86685   0.87262   0.87791
 Alpha virt. eigenvalues --    0.88950   0.88969   0.90898   0.91283   0.91976
 Alpha virt. eigenvalues --    0.94720   0.94948   0.96478   0.97121   0.98599
 Alpha virt. eigenvalues --    1.00521   1.00851   1.01955   1.02274   1.03775
 Alpha virt. eigenvalues --    1.04358   1.05167   1.05770   1.07094   1.07595
 Alpha virt. eigenvalues --    1.08789   1.09723   1.12501   1.13988   1.14639
 Alpha virt. eigenvalues --    1.15713   1.18997   1.20196   1.20362   1.23074
 Alpha virt. eigenvalues --    1.24238   1.24609   1.25364   1.26089   1.26986
 Alpha virt. eigenvalues --    1.27967   1.29284   1.30369   1.33436   1.38298
 Alpha virt. eigenvalues --    1.38955   1.40701   1.40816   1.41945   1.42175
 Alpha virt. eigenvalues --    1.43965   1.45346   1.45663   1.46003   1.46603
 Alpha virt. eigenvalues --    1.47261   1.47793   1.48001   1.48685   1.50282
 Alpha virt. eigenvalues --    1.50609   1.51187   1.51254   1.52050   1.53580
 Alpha virt. eigenvalues --    1.60973   1.66433   1.67388   1.71122   1.75329
 Alpha virt. eigenvalues --    1.75665   1.76630   1.77671   1.77790   1.78404
 Alpha virt. eigenvalues --    1.79138   1.80851   1.83033   1.84545   1.86024
 Alpha virt. eigenvalues --    1.86221   1.87111   1.88998   1.90367   1.90692
 Alpha virt. eigenvalues --    1.91947   1.92961   1.93245   1.93712   1.94564
 Alpha virt. eigenvalues --    1.95418   1.96716   1.98020   1.99053   2.00737
 Alpha virt. eigenvalues --    2.01892   2.02909   2.04031   2.04914   2.06682
 Alpha virt. eigenvalues --    2.06742   2.08285   2.08430   2.14725   2.15153
 Alpha virt. eigenvalues --    2.17347   2.17502   2.20336   2.21113   2.22547
 Alpha virt. eigenvalues --    2.22658   2.26101   2.26256   2.28732   2.29220
 Alpha virt. eigenvalues --    2.29926   2.30463   2.33192   2.35127   2.35150
 Alpha virt. eigenvalues --    2.35867   2.35880   2.36459   2.37504   2.37925
 Alpha virt. eigenvalues --    2.39211   2.43058   2.46071   2.47959   2.52356
 Alpha virt. eigenvalues --    2.52679   2.54098   2.58243   2.60469   2.61843
 Alpha virt. eigenvalues --    2.62855   2.63376   2.64586   2.64712   2.65621
 Alpha virt. eigenvalues --    2.66158   2.67519   2.68850   2.69896   2.75219
 Alpha virt. eigenvalues --    2.75695   2.78881   2.80222   2.80234   2.82055
 Alpha virt. eigenvalues --    2.85053   2.87639   2.89215   2.90184   2.90893
 Alpha virt. eigenvalues --    2.92942   2.98190   3.01529   3.04613   3.09330
 Alpha virt. eigenvalues --    3.15218   3.17032   3.36896   3.39457   3.47113
 Alpha virt. eigenvalues --    3.50840   4.01446   4.02260   4.09385   4.09779
 Alpha virt. eigenvalues --    4.10838   4.11415   4.14451   4.14465   4.16851
 Alpha virt. eigenvalues --    4.17169   4.24081   4.28178   4.31808   4.32907
 Alpha virt. eigenvalues --    4.39301   4.44174   4.46249   4.50830   4.63553
 Alpha virt. eigenvalues --    4.64680   4.87760   4.91831
          Condensed to atoms (all electrons):
               1          2          3          4          5          6
     1  C    4.902216   0.512202   0.001441  -0.038573  -0.018599   0.493743
     2  C    0.512202   5.156688   0.442345  -0.051660  -0.071582  -0.019723
     3  C    0.001441   0.442345   4.765977   0.446618  -0.023733  -0.039702
     4  C   -0.038573  -0.051660   0.446618   4.766392   0.447770  -0.005208
     5  C   -0.018599  -0.071582  -0.023733   0.447770   5.101515   0.517966
     6  C    0.493743  -0.019723  -0.039702  -0.005208   0.517966   4.909943
     7  H    0.356717  -0.036975   0.002698   0.001038   0.004372  -0.042472
     8  H   -0.047214   0.348001  -0.031885   0.005551   0.000434   0.004452
     9  C    0.008580  -0.098859   0.414018  -0.011944   0.015329  -0.000646
    10  C   -0.000786   0.016826  -0.018059   0.426178  -0.094005   0.008465
    11  H    0.004691   0.000488   0.004356  -0.043043   0.353538  -0.045812
    12  H   -0.041292   0.004211   0.000979   0.002817  -0.037509   0.356515
    13  C    0.000073  -0.001374  -0.055731   0.007267   0.009316  -0.000403
    14  C   -0.000372   0.014216   0.022802  -0.059003  -0.000965   0.000058
    15  H    0.000018  -0.000202   0.004262  -0.036575  -0.008048   0.000163
    16  H   -0.000000   0.000016   0.001234   0.002052  -0.000207   0.000004
    17  C    0.000000   0.000001   0.000000   0.000000  -0.000000  -0.000000
    18  C    0.000000   0.000000  -0.000005  -0.000000   0.000000  -0.000000
    19  C   -0.000002  -0.000104  -0.000071   0.000002  -0.000000   0.000000
    20  C    0.000032  -0.000374  -0.002246  -0.000071  -0.000005   0.000000
    21  C   -0.000005   0.000713  -0.000376  -0.000104   0.000000   0.000001
    22  C   -0.000001  -0.000005   0.000032  -0.000002   0.000000   0.000000
    23  H    0.000000  -0.000000   0.000000   0.000000  -0.000000  -0.000000
    24  H   -0.000000  -0.000000   0.000000   0.000000   0.000000  -0.000000
    25  H   -0.000000   0.000000  -0.000000   0.000000  -0.000000   0.000000
    26  C   -0.000001  -0.000022   0.000047   0.000000  -0.000000   0.000000
    27  C    0.000630  -0.022540  -0.049683   0.008609  -0.000082  -0.000001
    28  H   -0.000013   0.000094   0.001144   0.000035  -0.000004  -0.000001
    29  H   -0.000000  -0.000001  -0.000001  -0.000000   0.000000   0.000000
    30  C    0.000057  -0.000889  -0.003194   0.000054  -0.000006  -0.000001
    31  C   -0.000004  -0.000187   0.000096   0.000004  -0.000000   0.000000
    32  H    0.000000   0.000002  -0.000001  -0.000000   0.000000  -0.000000
    33  O    0.000000  -0.000047   0.002423   0.000201   0.000000  -0.000000
    34  H   -0.000000   0.000006   0.000134  -0.000118  -0.000001   0.000000
    35  O    0.000013   0.000661  -0.000842  -0.000099   0.000001  -0.000000
    36  H   -0.000001  -0.000024   0.000012   0.000001   0.000000   0.000000
               7          8          9         10         11         12
     1  C    0.356717  -0.047214   0.008580  -0.000786   0.004691  -0.041292
     2  C   -0.036975   0.348001  -0.098859   0.016826   0.000488   0.004211
     3  C    0.002698  -0.031885   0.414018  -0.018059   0.004356   0.000979
     4  C    0.001038   0.005551  -0.011944   0.426178  -0.043043   0.002817
     5  C    0.004372   0.000434   0.015329  -0.094005   0.353538  -0.037509
     6  C   -0.042472   0.004452  -0.000646   0.008465  -0.045812   0.356515
     7  H    0.599082  -0.005334  -0.000199   0.000010  -0.000194  -0.004850
     8  H   -0.005334   0.584332  -0.016524  -0.000185   0.000019  -0.000179
     9  C   -0.000199  -0.016524   5.327005  -0.068293  -0.000169   0.000012
    10  C    0.000010  -0.000185  -0.068293   5.146710  -0.008667  -0.000193
    11  H   -0.000194   0.000019  -0.000169  -0.008667   0.608810  -0.005486
    12  H   -0.004850  -0.000179   0.000012  -0.000193  -0.005486   0.600333
    13  C   -0.000001   0.000014  -0.043992   0.446415   0.000279   0.000003
    14  C    0.000003   0.000175   0.444551   0.014207   0.000007  -0.000000
    15  H   -0.000000   0.000002   0.000786   0.349471   0.006663  -0.000012
    16  H   -0.000000   0.000000   0.003970  -0.028113  -0.000012  -0.000000
    17  C    0.000000  -0.000001  -0.000001   0.000000   0.000000  -0.000000
    18  C    0.000000  -0.000004  -0.000082  -0.000000  -0.000000   0.000000
    19  C   -0.000000   0.000035   0.008606   0.000000   0.000000   0.000000
    20  C   -0.000001   0.001143  -0.049670   0.000047  -0.000000   0.000000
    21  C   -0.000001   0.000094  -0.022528  -0.000022   0.000000  -0.000000
    22  C   -0.000000  -0.000013   0.000630  -0.000001  -0.000000  -0.000000
    23  H   -0.000000  -0.000000   0.000011  -0.000000   0.000000  -0.000000
    24  H    0.000000  -0.000000   0.000000  -0.000000  -0.000000  -0.000000
    25  H   -0.000000   0.000000   0.000001  -0.000000   0.000000  -0.000000
    26  C   -0.000000  -0.000048  -0.000839   0.000000  -0.000000  -0.000000
    27  C   -0.000010   0.015381   0.261076  -0.000839   0.000001   0.000000
    28  H   -0.000000   0.000003   0.015376  -0.000048   0.000000  -0.000000
    29  H    0.000000  -0.000000  -0.000010  -0.000000  -0.000000   0.000000
    30  C   -0.000000   0.001923  -0.085184   0.000010   0.000000   0.000000
    31  C   -0.000000   0.000252   0.008510  -0.000000   0.000000   0.000000
    32  H   -0.000000  -0.000000  -0.000185   0.000000  -0.000000   0.000000
    33  O   -0.000000  -0.000001  -0.057235   0.004787  -0.000000   0.000000
    34  H    0.000000   0.000000   0.007742   0.000872  -0.000000  -0.000000
    35  O   -0.000000  -0.000374  -0.002931  -0.000002   0.000000  -0.000000
    36  H   -0.000000   0.000003  -0.000106  -0.000000  -0.000000   0.000000
              13         14         15         16         17         18
     1  C    0.000073  -0.000372   0.000018  -0.000000   0.000000   0.000000
     2  C   -0.001374   0.014216  -0.000202   0.000016   0.000001   0.000000
     3  C   -0.055731   0.022802   0.004262   0.001234   0.000000  -0.000005
     4  C    0.007267  -0.059003  -0.036575   0.002052   0.000000  -0.000000
     5  C    0.009316  -0.000965  -0.008048  -0.000207  -0.000000   0.000000
     6  C   -0.000403   0.000058   0.000163   0.000004  -0.000000  -0.000000
     7  H   -0.000001   0.000003  -0.000000  -0.000000   0.000000   0.000000
     8  H    0.000014   0.000175   0.000002   0.000000  -0.000001  -0.000004
     9  C   -0.043992   0.444551   0.000786   0.003970  -0.000001  -0.000082
    10  C    0.446415   0.014207   0.349471  -0.028113   0.000000  -0.000000
    11  H    0.000279   0.000007   0.006663  -0.000012   0.000000  -0.000000
    12  H    0.000003  -0.000000  -0.000012  -0.000000  -0.000000   0.000000
    13  C    5.189388   0.408906  -0.040127   0.338739   0.000000  -0.000000
    14  C    0.408906   4.687166   0.002869  -0.040522  -0.000001  -0.000006
    15  H   -0.040127   0.002869   0.595288  -0.005381  -0.000000  -0.000000
    16  H    0.338739  -0.040522  -0.005381   0.607229  -0.000000   0.000000
    17  C    0.000000  -0.000001  -0.000000  -0.000000   4.909943   0.517969
    18  C   -0.000000  -0.000006  -0.000000   0.000000   0.517969   5.101504
    19  C    0.000004   0.000053   0.000000  -0.000000  -0.005207   0.447771
    20  C    0.000095  -0.003187   0.000000  -0.000001  -0.039701  -0.023733
    21  C   -0.000186  -0.000885  -0.000000   0.000002  -0.019722  -0.071582
    22  C   -0.000004   0.000057   0.000000   0.000000   0.493738  -0.018600
    23  H    0.000000   0.000000  -0.000000  -0.000000   0.000163  -0.008048
    24  H    0.000000   0.000000  -0.000000   0.000000   0.356515  -0.037508
    25  H    0.000000   0.000000   0.000000  -0.000000  -0.045813   0.353539
    26  C   -0.000000   0.000010  -0.000000   0.000000   0.008465  -0.094003
    27  C    0.008510  -0.085171   0.000011  -0.000185  -0.000646   0.015329
    28  H    0.000252   0.001922  -0.000000  -0.000000   0.004452   0.000434
    29  H   -0.000000  -0.000000  -0.000000  -0.000000  -0.042472   0.004372
    30  C    0.000228  -0.002831   0.000000  -0.000002   0.000058  -0.000965
    31  C    0.000005   0.000227   0.000000  -0.000000  -0.000403   0.009316
    32  H   -0.000000  -0.000002  -0.000000   0.000000   0.000004  -0.000207
    33  O   -0.064889   0.297465  -0.000056  -0.005185  -0.000000   0.000001
    34  H   -0.006764  -0.032882  -0.000015   0.007696   0.000000   0.000000
    35  O    0.000046   0.001374  -0.000000   0.000002  -0.000000   0.000000
    36  H   -0.000002  -0.000052   0.000000  -0.000000   0.000000  -0.000001
              19         20         21         22         23         24
     1  C   -0.000002   0.000032  -0.000005  -0.000001   0.000000  -0.000000
     2  C   -0.000104  -0.000374   0.000713  -0.000005  -0.000000  -0.000000
     3  C   -0.000071  -0.002246  -0.000376   0.000032   0.000000   0.000000
     4  C    0.000002  -0.000071  -0.000104  -0.000002   0.000000   0.000000
     5  C   -0.000000  -0.000005   0.000000   0.000000  -0.000000   0.000000
     6  C    0.000000   0.000000   0.000001   0.000000  -0.000000  -0.000000
     7  H   -0.000000  -0.000001  -0.000001  -0.000000  -0.000000   0.000000
     8  H    0.000035   0.001143   0.000094  -0.000013  -0.000000  -0.000000
     9  C    0.008606  -0.049670  -0.022528   0.000630   0.000011   0.000000
    10  C    0.000000   0.000047  -0.000022  -0.000001  -0.000000  -0.000000
    11  H    0.000000  -0.000000   0.000000  -0.000000   0.000000  -0.000000
    12  H    0.000000   0.000000  -0.000000  -0.000000  -0.000000  -0.000000
    13  C    0.000004   0.000095  -0.000186  -0.000004   0.000000   0.000000
    14  C    0.000053  -0.003187  -0.000885   0.000057   0.000000   0.000000
    15  H    0.000000   0.000000  -0.000000   0.000000  -0.000000  -0.000000
    16  H   -0.000000  -0.000001   0.000002   0.000000  -0.000000   0.000000
    17  C   -0.005207  -0.039701  -0.019722   0.493738   0.000163   0.356515
    18  C    0.447771  -0.023733  -0.071582  -0.018600  -0.008048  -0.037508
    19  C    4.766371   0.446628  -0.051655  -0.038573  -0.036575   0.002817
    20  C    0.446628   4.765992   0.442336   0.001440   0.004262   0.000979
    21  C   -0.051655   0.442336   5.156682   0.512206  -0.000202   0.004211
    22  C   -0.038573   0.001440   0.512206   4.902211   0.000018  -0.041291
    23  H   -0.036575   0.004262  -0.000202   0.000018   0.595288  -0.000012
    24  H    0.002817   0.000979   0.004211  -0.041291  -0.000012   0.600329
    25  H   -0.043043   0.004356   0.000488   0.004691   0.006663  -0.005486
    26  C    0.426184  -0.018062   0.016825  -0.000786   0.349472  -0.000193
    27  C   -0.011940   0.413995  -0.098864   0.008580   0.000785   0.000012
    28  H    0.005551  -0.031890   0.348006  -0.047213   0.000002  -0.000179
    29  H    0.001038   0.002698  -0.036975   0.356718  -0.000000  -0.004850
    30  C   -0.058996   0.022793   0.014213  -0.000372   0.002869  -0.000000
    31  C    0.007264  -0.055728  -0.001374   0.000073  -0.040128   0.000003
    32  H    0.002052   0.001234   0.000016  -0.000000  -0.005381  -0.000000
    33  O   -0.000099  -0.000841   0.000658   0.000013  -0.000000  -0.000000
    34  H    0.000001   0.000012  -0.000024  -0.000001   0.000000   0.000000
    35  O    0.000201   0.002423  -0.000047   0.000000  -0.000056   0.000000
    36  H   -0.000118   0.000134   0.000006  -0.000000  -0.000015  -0.000000
              25         26         27         28         29         30
     1  C   -0.000000  -0.000001   0.000630  -0.000013  -0.000000   0.000057
     2  C    0.000000  -0.000022  -0.022540   0.000094  -0.000001  -0.000889
     3  C   -0.000000   0.000047  -0.049683   0.001144  -0.000001  -0.003194
     4  C    0.000000   0.000000   0.008609   0.000035  -0.000000   0.000054
     5  C   -0.000000  -0.000000  -0.000082  -0.000004   0.000000  -0.000006
     6  C    0.000000   0.000000  -0.000001  -0.000001   0.000000  -0.000001
     7  H   -0.000000  -0.000000  -0.000010  -0.000000   0.000000  -0.000000
     8  H    0.000000  -0.000048   0.015381   0.000003  -0.000000   0.001923
     9  C    0.000001  -0.000839   0.261076   0.015376  -0.000010  -0.085184
    10  C   -0.000000   0.000000  -0.000839  -0.000048  -0.000000   0.000010
    11  H    0.000000  -0.000000   0.000001   0.000000  -0.000000   0.000000
    12  H   -0.000000  -0.000000   0.000000  -0.000000   0.000000   0.000000
    13  C    0.000000  -0.000000   0.008510   0.000252  -0.000000   0.000228
    14  C    0.000000   0.000010  -0.085171   0.001922  -0.000000  -0.002831
    15  H    0.000000  -0.000000   0.000011  -0.000000  -0.000000   0.000000
    16  H   -0.000000   0.000000  -0.000185  -0.000000  -0.000000  -0.000002
    17  C   -0.045813   0.008465  -0.000646   0.004452  -0.042472   0.000058
    18  C    0.353539  -0.094003   0.015329   0.000434   0.004372  -0.000965
    19  C   -0.043043   0.426184  -0.011940   0.005551   0.001038  -0.058996
    20  C    0.004356  -0.018062   0.413995  -0.031890   0.002698   0.022793
    21  C    0.000488   0.016825  -0.098864   0.348006  -0.036975   0.014213
    22  C    0.004691  -0.000786   0.008580  -0.047213   0.356718  -0.000372
    23  H    0.006663   0.349472   0.000785   0.000002  -0.000000   0.002869
    24  H   -0.005486  -0.000193   0.000012  -0.000179  -0.004850  -0.000000
    25  H    0.608808  -0.008667  -0.000169   0.000019  -0.000194   0.000007
    26  C   -0.008667   5.146700  -0.068292  -0.000185   0.000010   0.014202
    27  C   -0.000169  -0.068292   5.327071  -0.016518  -0.000199   0.444554
    28  H    0.000019  -0.000185  -0.016518   0.584333  -0.005334   0.000175
    29  H   -0.000194   0.000010  -0.000199  -0.005334   0.599079   0.000003
    30  C    0.000007   0.014202   0.444554   0.000175   0.000003   4.687151
    31  C    0.000279   0.446427  -0.043998   0.000014  -0.000001   0.408918
    32  H   -0.000012  -0.028115   0.003970   0.000000  -0.000000  -0.040521
    33  O    0.000000  -0.000002  -0.002923  -0.000373  -0.000000   0.001374
    34  H   -0.000000  -0.000000  -0.000107   0.000003  -0.000000  -0.000052
    35  O   -0.000000   0.004787  -0.057236  -0.000001  -0.000000   0.297461
    36  H   -0.000000   0.000872   0.007743   0.000000   0.000000  -0.032876
              31         32         33         34         35         36
     1  C   -0.000004   0.000000   0.000000  -0.000000   0.000013  -0.000001
     2  C   -0.000187   0.000002  -0.000047   0.000006   0.000661  -0.000024
     3  C    0.000096  -0.000001   0.002423   0.000134  -0.000842   0.000012
     4  C    0.000004  -0.000000   0.000201  -0.000118  -0.000099   0.000001
     5  C   -0.000000   0.000000   0.000000  -0.000001   0.000001   0.000000
     6  C    0.000000  -0.000000  -0.000000   0.000000  -0.000000   0.000000
     7  H   -0.000000  -0.000000  -0.000000   0.000000  -0.000000  -0.000000
     8  H    0.000252  -0.000000  -0.000001   0.000000  -0.000374   0.000003
     9  C    0.008510  -0.000185  -0.057235   0.007742  -0.002931  -0.000106
    10  C   -0.000000   0.000000   0.004787   0.000872  -0.000002  -0.000000
    11  H    0.000000  -0.000000  -0.000000  -0.000000   0.000000  -0.000000
    12  H    0.000000   0.000000   0.000000  -0.000000  -0.000000   0.000000
    13  C    0.000005  -0.000000  -0.064889  -0.006764   0.000046  -0.000002
    14  C    0.000227  -0.000002   0.297465  -0.032882   0.001374  -0.000052
    15  H    0.000000  -0.000000  -0.000056  -0.000015  -0.000000   0.000000
    16  H   -0.000000   0.000000  -0.005185   0.007696   0.000002  -0.000000
    17  C   -0.000403   0.000004  -0.000000   0.000000  -0.000000   0.000000
    18  C    0.009316  -0.000207   0.000001   0.000000   0.000000  -0.000001
    19  C    0.007264   0.002052  -0.000099   0.000001   0.000201  -0.000118
    20  C   -0.055728   0.001234  -0.000841   0.000012   0.002423   0.000134
    21  C   -0.001374   0.000016   0.000658  -0.000024  -0.000047   0.000006
    22  C    0.000073  -0.000000   0.000013  -0.000001   0.000000  -0.000000
    23  H   -0.040128  -0.005381  -0.000000   0.000000  -0.000056  -0.000015
    24  H    0.000003  -0.000000  -0.000000   0.000000   0.000000  -0.000000
    25  H    0.000279  -0.000012   0.000000  -0.000000  -0.000000  -0.000000
    26  C    0.446427  -0.028115  -0.000002  -0.000000   0.004787   0.000872
    27  C   -0.043998   0.003970  -0.002923  -0.000107  -0.057236   0.007743
    28  H    0.000014   0.000000  -0.000373   0.000003  -0.000001   0.000000
    29  H   -0.000001  -0.000000  -0.000000  -0.000000  -0.000000   0.000000
    30  C    0.408918  -0.040521   0.001374  -0.000052   0.297461  -0.032876
    31  C    5.189364   0.338741   0.000046  -0.000002  -0.064888  -0.006764
    32  H    0.338741   0.607229   0.000002  -0.000000  -0.005183   0.007693
    33  O    0.000046   0.000002   8.222367   0.244130  -0.000382  -0.000008
    34  H   -0.000002  -0.000000   0.244130   0.373319  -0.000008   0.000000
    35  O   -0.064888  -0.005183  -0.000382  -0.000008   8.222385   0.244127
    36  H   -0.006764   0.007693  -0.000008   0.000000   0.244127   0.373316
 Mulliken charges:
               1
     1  C   -0.133550
     2  C   -0.191903
     3  C    0.114911
     4  C    0.131810
     5  C   -0.195495
     6  C   -0.137340
     7  H    0.126115
     8  H    0.139947
     9  C   -0.056808
    10  C   -0.194785
    11  H    0.124531
    12  H    0.124651
    13  C   -0.196068
    14  C    0.329812
    15  H    0.130883
    16  H    0.118664
    17  C   -0.137340
    18  C   -0.195490
    19  C    0.131803
    20  C    0.114910
    21  C   -0.191909
    22  C   -0.133545
    23  H    0.130883
    24  H    0.124653
    25  H    0.124533
    26  C   -0.194786
    27  C   -0.056856
    28  H    0.139945
    29  H    0.126117
    30  C    0.329841
    31  C   -0.196062
    32  H    0.118665
    33  O   -0.641426
    34  H    0.406058
    35  O   -0.641430
    36  H    0.406060
 Sum of Mulliken charges =  -0.00000
 Mulliken charges with hydrogens summed into heavy atoms:
               1
     1  C   -0.007434
     2  C   -0.051955
     3  C    0.114911
     4  C    0.131810
     5  C   -0.070963
     6  C   -0.012689
     9  C   -0.056808
    10  C   -0.063902
    13  C   -0.077404
    14  C    0.329812
    17  C   -0.012687
    18  C   -0.070957
    19  C    0.131803
    20  C    0.114910
    21  C   -0.051964
    22  C   -0.007428
    26  C   -0.063903
    27  C   -0.056856
    30  C    0.329841
    31  C   -0.077398
    33  O   -0.235368
    35  O   -0.235371
 Electronic spatial extent (au):  <R**2>=           5900.0620
 Charge=             -0.0000 electrons
 Dipole moment (field-independent basis, Debye):
    X=              0.0004    Y=              1.5443    Z=              0.0010  Tot=              1.5443
 Quadrupole moment (field-independent basis, Debye-Ang):
   XX=           -114.5295   YY=           -115.5784   ZZ=           -110.5861
   XY=              0.0055   XZ=             -8.6458   YZ=             -0.0006
 Traceless Quadrupole moment (field-independent basis, Debye-Ang):
   XX=             -0.9648   YY=             -2.0137   ZZ=              2.9785
   XY=              0.0055   XZ=             -8.6458   YZ=             -0.0006
 Octapole moment (field-independent basis, Debye-Ang**2):
  XXX=              0.0014  YYY=             50.4379  ZZZ=              0.0474  XYY=              0.0329
  XXY=             -9.7369  XXZ=             -0.0083  XZZ=             -0.0153  YZZ=             40.5131
  YYZ=             -0.0104  XYZ=            -34.6075
 Hexadecapole moment (field-independent basis, Debye-Ang**3):
 XXXX=          -4609.2116 YYYY=          -1537.9631 ZZZZ=          -1330.6048 XXXY=              0.0457
 XXXZ=            -97.2683 YYYX=              0.0411 YYYZ=             -0.1588 ZZZX=            -44.9617
 ZZZY=              0.1413 XXYY=          -1070.0749 XXZZ=          -1045.1659 YYZZ=           -339.3004
 XXYZ=              0.0007 YYXZ=              2.8301 ZZXY=              0.0462
 N-N= 1.672291228253D+03 E-N=-5.484808637882D+03  KE= 9.123234194621D+02
 Unable to Open any file for archive entry.
 1\1\GINC-CCC091\SP\RB3LYP TD-FC\6-31G(d)\C20H14O2\ROOT\20-Feb-2025\0\\
 # td=(nstat=16) b3lyp/6-31g(d)\\binol | No.19\\0,1\C,0,-2.476934,1.996
 862,1.784995\C,0,-1.476093,1.18205,1.305342\C,0,-1.714133,0.280174,0.2
 30275\C,0,-3.030673,0.245727,-0.339973\C,0,-4.040202,1.099258,0.179366
 \C,0,-3.774599,1.958923,1.220065\H,0,-2.269362,2.67755,2.606669\H,0,-0
 .484808,1.219694,1.745001\C,0,-0.690152,-0.57437,-0.28707\C,0,-3.28757
 1,-0.645077,-1.413094\H,0,-5.032565,1.059376,-0.264672\H,0,-4.554545,2
 .607702,1.6092\C,0,-2.297299,-1.460796,-1.90201\C,0,-0.997237,-1.42693
 6,-1.337333\H,0,-4.283429,-0.675114,-1.848546\H,0,-2.501897,-2.142748,
 -2.726087\C,0,3.775121,1.957755,-1.22111\C,0,4.040453,1.098677,-0.1798
 64\C,0,3.030726,0.245602,0.339855\C,0,1.714274,0.279857,-0.23061\C,0,1
 .476504,1.181172,-1.306223\C,0,2.477525,1.995557,-1.78622\H,0,4.283138
 ,-0.674452,1.849192\H,0,4.555214,2.606189,-1.61053\H,0,5.032747,1.0589
 25,0.26434\C,0,3.287338,-0.644531,1.413596\C,0,0.690117,-0.574245,0.28
 7121\H,0,0.485279,1.218724,-1.746014\H,0,2.270161,2.675821,-2.608296\C
 ,0,0.996855,-1.426024,1.338144\C,0,2.296855,-1.459721,1.902993\H,0,2.5
 01267,-2.141127,2.72757\O,0,-0.006878,-2.238533,-1.820403\H,0,-0.36813
 9,-2.774165,-2.543167\O,0,0.006194,-2.236944,1.821755\H,0,0.367146,-2.
 772057,2.545054\\Version=ES64L-G16RevC.02\State=1-A\HF=-921.0157416\RM
 SD=6.929e-09\PG=C01 [X(C20H14O2)]\\@
 The archive entry for this job was punched.


 EXPERIENCE IS THE FRUIT OF THE TREE OF ERRORS.
 Job cpu time:       0 days  0 hours 49 minutes 42.4 seconds.
 Elapsed time:       0 days  0 hours  6 minutes 29.3 seconds.
 File lengths (MBytes):  RWF=   1295 Int=      0 D2E=      0 Chk=     78 Scr=      1
 Normal termination of Gaussian 16 at Thu Feb 20 09:33:43 2025.
