 Entering Gaussian System, Link 0=/apl/gaussian/16c02/g16/._.g16
 Initial command:
 /apl/gaussian/16c02/g16/l1.exe "/lwork/users/ux8/8279365.ccpbs1/gaussian/Gau-2926903.inp" -scrdir="/lwork/users/ux8/8279365.ccpbs1/gaussian/"
 Default CPUs for threads: 24,25,26,27,28,29,30,31
 Default is to use a total of   8 processors:
                                8 via shared-memory
                                1 via Linda
 Entering Link 1 = /apl/gaussian/16c02/g16/l1.exe PID=   2926905.
  
 Copyright (c) 1988-2021, Gaussian, Inc.  All Rights Reserved.
  
 This is part of the Gaussian(R) 16 program.  It is based on
 the Gaussian(R) 09 system (copyright 2009, Gaussian, Inc.),
 the Gaussian(R) 03 system (copyright 2003, Gaussian, Inc.),
 the Gaussian(R) 98 system (copyright 1998, Gaussian, Inc.),
 the Gaussian(R) 94 system (copyright 1995, Gaussian, Inc.),
 the Gaussian 92(TM) system (copyright 1992, Gaussian, Inc.),
 the Gaussian 90(TM) system (copyright 1990, Gaussian, Inc.),
 the Gaussian 88(TM) system (copyright 1988, Gaussian, Inc.),
 the Gaussian 86(TM) system (copyright 1986, Carnegie Mellon
 University), and the Gaussian 82(TM) system (copyright 1983,
 Carnegie Mellon University). Gaussian is a federally registered
 trademark of Gaussian, Inc.
  
 This software contains proprietary and confidential information,
 including trade secrets, belonging to Gaussian, Inc.
  
 This software is provided under written license and may be
 used, copied, transmitted, or stored only in accord with that
 written license.
  
 The following legend is applicable only to US Government
 contracts under FAR:
  
                    RESTRICTED RIGHTS LEGEND
  
 Use, reproduction and disclosure by the US Government is
 subject to restrictions as set forth in subparagraphs (a)
 and (c) of the Commercial Computer Software - Restricted
 Rights clause in FAR 52.227-19.
  
 Gaussian, Inc.
 340 Quinnipiac St., Bldg. 40, Wallingford CT 06492
  
  
 ---------------------------------------------------------------
 Warning -- This program may not be used in any manner that
 competes with the business of Gaussian, Inc. or will provide
 assistance to any competitor of Gaussian, Inc.  The licensee
 of this program is prohibited from giving any competitor of
 Gaussian, Inc. access to this program.  By using this program,
 the user acknowledges that Gaussian, Inc. is engaged in the
 business of creating and licensing software in the field of
 computational chemistry and represents and warrants to the
 licensee that it is not a competitor of Gaussian, Inc. and that
 it will not use this program in any manner prohibited above.
 ---------------------------------------------------------------
  

 Cite this work as:
 Gaussian 16, Revision C.02,
 M. J. Frisch, G. W. Trucks, H. B. Schlegel, G. E. Scuseria, 
 M. A. Robb, J. R. Cheeseman, G. Scalmani, V. Barone, 
 G. A. Petersson, H. Nakatsuji, X. Li, M. Caricato, A. V. Marenich, 
 J. Bloino, B. G. Janesko, R. Gomperts, B. Mennucci, H. P. Hratchian, 
 J. V. Ortiz, A. F. Izmaylov, J. L. Sonnenberg, D. Williams-Young, 
 F. Ding, F. Lipparini, F. Egidi, J. Goings, B. Peng, A. Petrone, 
 T. Henderson, D. Ranasinghe, V. G. Zakrzewski, J. Gao, N. Rega, 
 G. Zheng, W. Liang, M. Hada, M. Ehara, K. Toyota, R. Fukuda, 
 J. Hasegawa, M. Ishida, T. Nakajima, Y. Honda, O. Kitao, H. Nakai, 
 T. Vreven, K. Throssell, J. A. Montgomery, Jr., J. E. Peralta, 
 F. Ogliaro, M. J. Bearpark, J. J. Heyd, E. N. Brothers, K. N. Kudin, 
 V. N. Staroverov, T. A. Keith, R. Kobayashi, J. Normand, 
 K. Raghavachari, A. P. Rendell, J. C. Burant, S. S. Iyengar, 
 J. Tomasi, M. Cossi, J. M. Millam, M. Klene, C. Adamo, R. Cammi, 
 J. W. Ochterski, R. L. Martin, K. Morokuma, O. Farkas, 
 J. B. Foresman, and D. J. Fox, Gaussian, Inc., Wallingford CT, 2019.
 
 ******************************************
 Gaussian 16:  ES64L-G16RevC.02  7-Dec-2021
                20-Feb-2025 
 ******************************************
 %chk=binol.011.tddft.chk
 %mem=9600MB
 SetSPE:  set environment variable "OMP_PROC_BIND" = "true"
 SetSPE:  set environment variable "OMP_PLACES" = "{24},{25},{26},{27},{28},{29},{30},{31}"
 ------------------------------
 # td=(nstat=16) b3lyp/6-31g(d)
 ------------------------------
 1/38=1,172=1/1;
 2/12=2,17=6,18=5,40=1/2;
 3/5=1,6=6,7=1,11=9,25=1,30=1,74=-5/1,2,3,8;
 4//1;
 5/5=2,38=5/2;
 8/6=1,10=2,108=16/1;
 9/41=16,42=1,70=2/14;
 6/7=2,8=2,9=2,10=2/1;
 99/5=1,9=1/99;
 -------------
 binol | No.11
 -------------
 Symbolic Z-matrix:
 Charge =  0 Multiplicity = 1
 C                    -3.19661  -1.78902  -1.15128 
 C                    -1.98993  -1.30018  -0.6916 
 C                    -1.88028  -0.09805   0.06227 
 C                    -3.08096   0.69382   0.07099 
 C                    -4.32775   0.14633  -0.3315 
 C                    -4.40132  -1.10144  -0.90396 
 H                    -3.20783  -2.70571  -1.73571 
 H                    -1.09526  -1.82644  -0.98305 
 C                    -0.62286   0.42841   0.66146 
 C                    -2.9816    2.09132   0.286 
 H                    -5.21426   0.76993  -0.23983 
 H                    -5.35263  -1.51194  -1.23081 
 C                    -1.74545   2.64609   0.42214 
 C                    -0.58676   1.83078   0.55864 
 H                    -3.87615   2.70813   0.26249 
 H                    -1.62523   3.72487   0.50787 
 C                     4.40122   1.10157  -0.904 
 C                     4.32773  -0.1462   -0.33151 
 C                     3.08098  -0.69376   0.07099 
 C                     1.88026   0.09803   0.06224 
 C                     1.98982   1.30014  -0.69166 
 C                     3.19646   1.78905  -1.15136 
 H                     3.87628  -2.70803   0.26253 
 H                     5.3525    1.51213  -1.23086 
 H                     5.21429  -0.76973  -0.23983 
 C                     2.98169  -2.09127   0.28601 
 C                     0.62285  -0.42849   0.66147 
 H                     1.09509   1.82632  -0.98312 
 H                     3.20761   2.70573  -1.73582 
 C                     0.58682  -1.83085   0.55855 
 C                     1.74557  -2.6461    0.42208 
 H                     1.62539  -3.72489   0.50775 
 O                     0.52294   2.48503   1.05382 
 H                     0.33882   3.43575   1.09142 
 O                    -0.52286  -2.48521   1.05361 
 H                    -0.33846  -3.43585   1.09168 
 
                          Input orientation:                          
 ---------------------------------------------------------------------
 Center     Atomic      Atomic             Coordinates (Angstroms)
 Number     Number       Type             X           Y           Z
 ---------------------------------------------------------------------
      1          6           0       -3.196609   -1.789020   -1.151276
      2          6           0       -1.989932   -1.300175   -0.691601
      3          6           0       -1.880284   -0.098046    0.062266
      4          6           0       -3.080964    0.693822    0.070993
      5          6           0       -4.327745    0.146330   -0.331496
      6          6           0       -4.401321   -1.101439   -0.903961
      7          1           0       -3.207828   -2.705712   -1.735712
      8          1           0       -1.095257   -1.826437   -0.983048
      9          6           0       -0.622861    0.428406    0.661463
     10          6           0       -2.981595    2.091323    0.285999
     11          1           0       -5.214264    0.769926   -0.239833
     12          1           0       -5.352626   -1.511944   -1.230813
     13          6           0       -1.745448    2.646093    0.422135
     14          6           0       -0.586758    1.830778    0.558637
     15          1           0       -3.876152    2.708133    0.262489
     16          1           0       -1.625230    3.724874    0.507868
     17          6           0        4.401218    1.101568   -0.904001
     18          6           0        4.327727   -0.146198   -0.331513
     19          6           0        3.080983   -0.693760    0.070992
     20          6           0        1.880258    0.098028    0.062243
     21          6           0        1.989816    1.300137   -0.691659
     22          6           0        3.196458    1.789051   -1.151356
     23          1           0        3.876281   -2.708031    0.262528
     24          1           0        5.352496    1.512131   -1.230856
     25          1           0        5.214289   -0.769730   -0.239831
     26          6           0        2.981692   -2.091269    0.286014
     27          6           0        0.622853   -0.428486    0.661465
     28          1           0        1.095092    1.826323   -0.983120
     29          1           0        3.207613    2.705727   -1.735819
     30          6           0        0.586820   -1.830849    0.558547
     31          6           0        1.745565   -2.646099    0.422079
     32          1           0        1.625391   -3.724891    0.507746
     33          8           0        0.522937    2.485034    1.053822
     34          1           0        0.338819    3.435749    1.091422
     35          8           0       -0.522864   -2.485212    1.053613
     36          1           0       -0.338455   -3.435851    1.091676
 ---------------------------------------------------------------------
                    Distance matrix (angstroms):
                    1          2          3          4          5
     1  C    0.000000
     2  C    1.380703   0.000000
     3  C    2.462679   1.423184   0.000000
     4  C    2.769805   2.397483   1.438320   0.000000
     5  C    2.386857   2.772620   2.490950   1.419932   0.000000
     6  C    1.408994   2.428866   2.880281   2.432456   1.374793
     7  H    1.087205   2.132832   3.434388   3.851897   3.370487
     8  H    2.108407   1.078117   2.167091   3.377239   3.842565
     9  C    3.850608   2.586051   1.489061   2.541923   3.845998
    10  C    4.143556   3.666245   2.460951   1.417431   2.444671
    11  H    3.383765   3.858203   3.458332   2.157168   1.087745
    12  H    2.175203   3.412229   3.965895   3.423529   2.146864
    13  C    4.924603   4.107701   2.770918   2.391290   3.672197
    14  C    4.778919   3.651693   2.374859   2.784157   4.198176
    15  H    4.762866   4.531517   3.449379   2.174039   2.668256
    16  H    5.968670   5.179078   3.857244   3.390767   4.562247
    17  C    8.132873   6.830833   6.467613   7.556449   8.799718
    18  C    7.745096   6.432273   6.220674   7.467017   8.660414
    19  C    6.488582   5.163668   4.996911   6.316247   7.467061
    20  C    5.550510   4.183494   3.765650   4.996876   6.220664
    21  C    6.054184   4.753947   4.183419   5.163532   6.432151
    22  C    7.326247   6.054200   5.550434   6.488427   7.744955
    23  H    7.271121   6.107772   6.323778   7.746777   8.706680
    24  H    9.164667   7.881060   7.521831   8.572496   9.817399
    25  H    8.521320   7.237836   7.132699   8.429105   9.586343
    26  C    6.350477   5.128217   5.259450   6.675235   7.669161
    27  C    4.441326   3.068758   2.594981   3.914906   5.081811
    28  H    5.614061   4.401971   3.694440   4.453443   5.714381
    29  H    7.845923   6.644706   6.081196   6.845329   8.081105
    30  C    4.152057   2.912754   3.055406   4.479320   5.371626
    31  C    5.256911   4.123801   4.446214   5.879942   6.726859
    32  H    5.454506   4.515334   5.063814   6.470360   7.150560
    33  O    6.079886   4.867116   3.664827   4.142764   5.560374
    34  H    6.695309   5.570568   4.297824   4.500484   5.884029
    35  O    3.534845   2.569508   2.919575   4.197103   4.829147
    36  H    3.988976   3.235516   3.818097   5.061358   5.547240
                    6          7          8          9         10
     6  C    0.000000
     7  H    2.165624   0.000000
     8  H    3.385548   2.408855   0.000000
     9  C    4.366662   4.717118   2.830528   0.000000
    10  C    3.691254   5.210570   4.529635   2.910308   0.000000
    11  H    2.145682   4.282931   4.925412   4.691477   2.647149
    12  H    1.086429   2.506025   4.276153   5.451270   4.572312
    13  C    4.780815   5.952871   4.732950   2.497121   1.361750
    14  C    5.028716   5.719597   4.001323   1.406600   2.424347
    15  H    4.018613   5.809405   5.463247   3.992523   1.086848
    16  H    5.743974   6.992189   5.772413   3.448918   2.134816
    17  C    9.074025   8.548959   6.228218   5.305204   7.543318
    18  C    8.799799   8.081304   5.714583   5.081780   7.669029
    19  C    7.556561   6.845529   4.453643   3.914891   6.675160
    20  C    6.467651   6.081301   3.694576   2.594960   5.259364
    21  C    6.830759   6.644725   4.402050   3.068703   5.128033
    22  C    8.132797   7.845970   5.614169   4.441268   6.350252
    23  H    8.512375   7.360541   5.200467   5.498969   8.370473
    24  H   10.103195   9.556371   7.265051   6.360835   8.490782
    25  H    9.644224   8.770276   6.440448   6.026623   8.696818
    26  C    7.543519   6.540266   4.278103   4.413901   7.283877
    27  C    5.305257   5.060270   2.758730   1.511975   4.413894
    28  H    6.228050   6.294510   4.259141   2.758657   4.277881
    29  H    8.548823   8.392947   6.294590   5.060206   6.539995
    30  C    5.249049   4.519775   2.281648   2.564791   5.309548
    31  C    6.475227   5.403306   3.273606   3.888358   6.693857
    32  H    6.722847   5.425112   3.637103   4.725266   7.423061
    33  O    6.398751   6.974522   5.035491   2.386738   3.609197
    34  H    6.858320   7.634719   5.835289   3.186504   3.671694
    35  O    4.559534   3.877884   2.215763   2.941590   5.251596
    36  H    5.093027   4.093962   2.732662   3.898519   6.179398
                   11         12         13         14         15
    11  H    0.000000
    12  H    2.491609   0.000000
    13  C    3.998861   5.747455   0.000000
    14  C    4.814226   6.090108   1.423353   0.000000
    15  H    2.408219   4.713701   2.137577   3.417246   0.000000
    16  H    4.708709   6.658885   1.088839   2.160695   2.482060
    17  C    9.644097  10.103204   6.475006   5.248901   8.512145
    18  C    9.586307   9.817496   6.726688   5.371496   8.706531
    19  C    8.429123   8.572624   5.879826   4.479220   7.746694
    20  C    7.132667   7.521876   4.446111   3.055323   6.323686
    21  C    7.237682   7.880986   4.123631   2.912654   6.107572
    22  C    8.521135   9.164590   5.256694   4.151932   7.270865
    23  H    9.746105   9.425148   7.765047   6.372377   9.457011
    24  H   10.639051  11.124058   7.375572   6.211164   9.424884
    25  H   10.541597  10.639202   7.781002   6.407210   9.745972
    26  C    8.696933   8.491009   6.693802   5.309483   8.370474
    27  C    6.026646   6.360892   3.888337   2.564762   5.498964
    28  H    6.440219   7.264878   3.273443   2.281590   5.200231
    29  H    8.770023   9.556227   5.403067   4.519659   7.360229
    30  C    6.407341   6.211323   5.049861   3.845100   6.372451
    31  C    7.781168   7.375817   6.339911   5.049832   7.765112
    32  H    8.218463   7.524124   7.208281   5.980105   8.468230
    33  O    6.126223   7.464424   2.360199   1.380102   4.475261
    34  H    6.302030   7.890817   2.327159   1.927819   4.356895
    35  O    5.854755   5.430696   5.312605   4.344750   6.232275
    36  H    6.575332   5.851263   6.278372   5.299355   7.138024
                   16         17         18         19         20
    16  H    0.000000
    17  C    6.722588   0.000000
    18  C    7.150347   1.374796   0.000000
    19  C    6.470211   2.432454   1.419931   0.000000
    20  C    5.063698   2.880271   2.490943   1.438313   0.000000
    21  C    4.515171   2.428864   2.772619   2.397479   1.423179
    22  C    5.454274   1.408994   2.386860   2.769805   2.462674
    23  H    8.468121   4.018631   2.668272   2.174045   3.449375
    24  H    7.523832   1.086428   2.146864   3.423527   3.965883
    25  H    8.218244   2.145685   1.087745   2.157169   3.458326
    26  C    7.422969   3.691260   2.444678   1.417436   2.460945
    27  C    4.725237   4.366668   3.846009   2.541935   1.489077
    28  H    3.636990   3.385557   3.842572   3.377238   2.167089
    29  H    5.424865   2.165627   3.370491   3.851897   3.434384
    30  C    5.980116   5.028692   4.198171   2.784157   2.374840
    31  C    7.208253   4.780794   3.672188   2.391282   2.770895
    32  H    8.128071   5.743949   4.562238   3.390761   3.857219
    33  O    2.539663   4.559398   4.828971   4.196938   2.919477
    34  H    2.069207   5.092465   5.546754   5.060987   3.817804
    35  O    6.330736   6.398736   5.560377   4.142772   3.664825
    36  H    7.298808   6.858236   5.883922   4.500379   4.297758
                   21         22         23         24         25
    21  C    0.000000
    22  C    1.380704   0.000000
    23  H    4.531516   4.762875   0.000000
    24  H    3.412227   2.175202   4.713722   0.000000
    25  H    3.858202   3.383767   2.408244   2.491610   0.000000
    26  C    3.666237   4.143554   1.086847   4.572319   2.647162
    27  C    2.586053   3.850615   3.992527   5.451275   4.691489
    28  H    1.078124   2.108419   5.463242   4.276164   4.925419
    29  H    2.132834   1.087206   5.809413   2.506029   4.282935
    30  C    3.651642   4.778876   3.417255   6.090086   4.814234
    31  C    4.107657   4.924565   2.137579   5.747436   3.998866
    32  H    5.179023   5.968620   2.482064   6.658862   4.708719
    33  O    2.569517   3.534815   6.232093   5.430556   5.854555
    34  H    3.235121   3.988454   7.137698   5.850661   6.574838
    35  O    4.867073   6.079849   4.475259   7.464409   6.126239
    36  H    5.570522   6.695252   4.356743   7.890729   6.301911
                   26         27         28         29         30
    26  C    0.000000
    27  C    2.910315   0.000000
    28  H    4.529623   2.830518   0.000000
    29  H    5.210568   4.717123   2.408869   0.000000
    30  C    2.424357   1.406596   4.001248   5.719545   0.000000
    31  C    1.361749   2.497117   4.732891   5.952827   1.423357
    32  H    2.134816   3.448913   5.772337   6.992128   2.160696
    33  O    5.251434   2.941518   2.215941   3.877923   4.344678
    34  H    6.179109   3.898442   2.732385   4.093434   5.299294
    35  O    3.609198   2.386749   5.035414   6.974470   1.380101
    36  H    3.671562   3.186446   5.835264   7.634678   1.927795
                   31         32         33         34         35
    31  C    0.000000
    32  H    1.088840   0.000000
    33  O    5.312480   6.330622   0.000000
    34  H    6.278203   7.298679   0.969109   0.000000
    35  O    2.360189   2.539641   5.079079   5.983453   0.000000
    36  H    2.327060   2.069108   5.983336   6.904896   0.969108
                   36
    36  H    0.000000
 Stoichiometry    C20H14O2
 Framework group  C1[X(C20H14O2)]
 Deg. of freedom   102
 Full point group                 C1      NOp   1
 Largest Abelian subgroup         C1      NOp   1
 Largest concise Abelian subgroup C1      NOp   1
                         Standard orientation:                         
 ---------------------------------------------------------------------
 Center     Atomic      Atomic             Coordinates (Angstroms)
 Number     Number       Type             X           Y           Z
 ---------------------------------------------------------------------
      1          6           0       -3.196609    1.789020    1.151276
      2          6           0       -1.989932    1.300175    0.691601
      3          6           0       -1.880284    0.098046   -0.062266
      4          6           0       -3.080964   -0.693822   -0.070993
      5          6           0       -4.327745   -0.146330    0.331496
      6          6           0       -4.401321    1.101439    0.903961
      7          1           0       -3.207828    2.705712    1.735712
      8          1           0       -1.095257    1.826437    0.983048
      9          6           0       -0.622861   -0.428406   -0.661463
     10          6           0       -2.981595   -2.091323   -0.285999
     11          1           0       -5.214264   -0.769926    0.239833
     12          1           0       -5.352626    1.511944    1.230813
     13          6           0       -1.745448   -2.646093   -0.422135
     14          6           0       -0.586758   -1.830778   -0.558637
     15          1           0       -3.876152   -2.708133   -0.262489
     16          1           0       -1.625230   -3.724874   -0.507868
     17          6           0        4.401218   -1.101568    0.904001
     18          6           0        4.327727    0.146198    0.331513
     19          6           0        3.080983    0.693760   -0.070992
     20          6           0        1.880258   -0.098028   -0.062243
     21          6           0        1.989816   -1.300137    0.691659
     22          6           0        3.196458   -1.789051    1.151356
     23          1           0        3.876281    2.708031   -0.262528
     24          1           0        5.352496   -1.512131    1.230856
     25          1           0        5.214289    0.769730    0.239831
     26          6           0        2.981692    2.091269   -0.286014
     27          6           0        0.622853    0.428486   -0.661465
     28          1           0        1.095092   -1.826323    0.983120
     29          1           0        3.207613   -2.705727    1.735819
     30          6           0        0.586820    1.830849   -0.558547
     31          6           0        1.745565    2.646099   -0.422079
     32          1           0        1.625391    3.724891   -0.507746
     33          8           0        0.522937   -2.485034   -1.053822
     34          1           0        0.338819   -3.435749   -1.091422
     35          8           0       -0.522864    2.485212   -1.053613
     36          1           0       -0.338455    3.435851   -1.091676
 ---------------------------------------------------------------------
 Rotational constants (GHZ):           0.5332522           0.2306215           0.1767217
 Standard basis: 6-31G(d) (6D, 7F)
 There are   358 symmetry adapted cartesian basis functions of A   symmetry.
 There are   358 symmetry adapted basis functions of A   symmetry.
   358 basis functions,   672 primitive gaussians,   358 cartesian basis functions
    75 alpha electrons       75 beta electrons
       nuclear repulsion energy      1675.8238462948 Hartrees.
 NAtoms=   36 NActive=   36 NUniq=   36 SFac= 1.00D+00 NAtFMM=   60 NAOKFM=F Big=F
 Integral buffers will be    131072 words long.
 Regular integral format.
 Two-electron integral symmetry is turned on.
 One-electron integrals computed using PRISM.
 NBasis=   358 RedAO= T EigKep=  3.77D-04  NBF=   358
 NBsUse=   358 1.00D-06 EigRej= -1.00D+00 NBFU=   358
 ExpMin= 1.61D-01 ExpMax= 5.48D+03 ExpMxC= 8.25D+02 IAcc=3 IRadAn=         5 AccDes= 0.00D+00
 Harris functional with IExCor=  402 and IRadAn=       5 diagonalized for initial guess.
 HarFok:  IExCor=  402 AccDes= 0.00D+00 IRadAn=         5 IDoV= 1 UseB2=F ITyADJ=14
 ICtDFT=  3500011 ScaDFX=  1.000000  1.000000  1.000000  1.000000
 FoFCou: FMM=F IPFlag=           0 FMFlag=      100000 FMFlg1=           0
         NFxFlg=           0 DoJE=T BraDBF=F KetDBF=T FulRan=T
         wScrn=  0.000000 ICntrl=       500 IOpCl=  0 I1Cent=   200000004 NGrid=           0
         NMat0=    1 NMatS0=      1 NMatT0=    0 NMatD0=    1 NMtDS0=    0 NMtDT0=    0
 Petite list used in FoFCou.
 Requested convergence on RMS density matrix=1.00D-08 within 128 cycles.
 Requested convergence on MAX density matrix=1.00D-06.
 Requested convergence on             energy=1.00D-06.
 No special actions if energy rises.
 Integral accuracy reduced to 1.0D-05 until final iterations.
 Initial convergence to 1.0D-05 achieved.  Increase integral accuracy.
 SCF Done:  E(RB3LYP) =  -920.935855057     A.U. after   14 cycles
            NFock= 14  Conv=0.92D-08     -V/T= 2.0095
 DoSCS=F DFT=T ScalE2(SS,OS)=  1.000000  1.000000
 ExpMin= 1.61D-01 ExpMax= 5.48D+03 ExpMxC= 8.25D+02 IAcc=3 IRadAn=         5 AccDes= 0.00D+00
 HarFok:  IExCor=  205 AccDes= 0.00D+00 IRadAn=         5 IDoV=-2 UseB2=F ITyADJ=14
 ICtDFT= 12500011 ScaDFX=  1.000000  1.000000  1.000000  1.000000
 GSVD:  LWork=        -660 too small for GESVD, short by        2750 words or        2750 for optimal perf.
 Range of M.O.s used for correlation:    23   358
 NBasis=   358 NAE=    75 NBE=    75 NFC=    22 NFV=     0
 NROrb=    336 NOA=    53 NOB=    53 NVA=   283 NVB=   283
 Orbital symmetries:
       Occupied  (A) (A) (A) (A) (A) (A) (A) (A) (A) (A) (A) (A)
                 (A) (A) (A) (A) (A) (A) (A) (A) (A) (A) (A) (A)
                 (A) (A) (A) (A) (A) (A) (A) (A) (A) (A) (A) (A)
                 (A) (A) (A) (A) (A) (A) (A) (A) (A) (A) (A) (A)
                 (A) (A) (A) (A) (A) (A) (A) (A) (A) (A) (A) (A)
                 (A) (A) (A) (A) (A) (A) (A) (A) (A) (A) (A) (A)
                 (A) (A) (A)
       Virtual   (A) (A) (A) (A) (A) (A) (A) (A) (A) (A) (A) (A)
                 (A) (A) (A) (A) (A) (A) (A) (A) (A) (A) (A) (A)
                 (A) (A) (A) (A) (A) (A) (A) (A) (A) (A) (A) (A)
                 (A) (A) (A) (A) (A) (A) (A) (A) (A) (A) (A) (A)
                 (A) (A) (A) (A) (A) (A) (A) (A) (A) (A) (A) (A)
                 (A) (A) (A) (A) (A) (A) (A) (A) (A) (A) (A) (A)
                 (A) (A) (A) (A) (A) (A) (A) (A) (A) (A) (A) (A)
                 (A) (A) (A) (A) (A) (A) (A) (A) (A) (A) (A) (A)
                 (A) (A) (A) (A) (A) (A) (A) (A) (A) (A) (A) (A)
                 (A) (A) (A) (A) (A) (A) (A) (A) (A) (A) (A) (A)
                 (A) (A) (A) (A) (A) (A) (A) (A) (A) (A) (A) (A)
                 (A) (A) (A) (A) (A) (A) (A) (A) (A) (A) (A) (A)
                 (A) (A) (A) (A) (A) (A) (A) (A) (A) (A) (A) (A)
                 (A) (A) (A) (A) (A) (A) (A) (A) (A) (A) (A) (A)
                 (A) (A) (A) (A) (A) (A) (A) (A) (A) (A) (A) (A)
                 (A) (A) (A) (A) (A) (A) (A) (A) (A) (A) (A) (A)
                 (A) (A) (A) (A) (A) (A) (A) (A) (A) (A) (A) (A)
                 (A) (A) (A) (A) (A) (A) (A) (A) (A) (A) (A) (A)
                 (A) (A) (A) (A) (A) (A) (A) (A) (A) (A) (A) (A)
                 (A) (A) (A) (A) (A) (A) (A) (A) (A) (A) (A) (A)
                 (A) (A) (A) (A) (A) (A) (A) (A) (A) (A) (A) (A)
                 (A) (A) (A) (A) (A) (A) (A) (A) (A) (A) (A) (A)
                 (A) (A) (A) (A) (A) (A) (A) (A) (A) (A) (A) (A)
                 (A) (A) (A) (A) (A) (A) (A)
    64 initial guesses have been made.
 Convergence on wavefunction:    0.001000000000000
 Iteration     1 Dimension    64 NMult     0 NNew     64
 CISAX will form    64 AO SS matrices at one time.
 New state      5 was old state      8
 New state      6 was old state      5
 New state      8 was old state      9
 New state      9 was old state     13
 New state     10 was old state     11
 New state     11 was old state     12
 New state     12 was old state     14
 New state     13 was old state     16
 New state     14 was old state     15
 New state     15 was old state     19
 New state     16 was old state     20
 Iteration     2 Dimension    96 NMult    64 NNew     32
 New state      5 was old state      6
 New state      6 was old state      5
 Iteration     3 Dimension   128 NMult    96 NNew     32
 Iteration     4 Dimension   160 NMult   128 NNew     32
 Iteration     5 Dimension   176 NMult   160 NNew     16
 Iteration     6 Dimension   180 NMult   176 NNew      4
 ***********************************************************************
 Excited states from <AA,BB:AA,BB> singles matrix:
 ***********************************************************************
 
 Ground to excited state transition densities written to RWF  633
 Ground to excited state transition electric dipole moments (Au):
       state          X           Y           Z        Dip. S.      Osc.
         1        -1.7277     -0.6968     -0.0000      3.4704      0.2771
         2         0.0003      0.0000     -0.0861      0.0074      0.0007
         3        -0.4555      0.3842      0.0000      0.3551      0.0337
         4        -0.0000     -0.0000     -0.1276      0.0163      0.0016
         5         0.0000     -0.0001      0.1047      0.0110      0.0011
         6         0.3245     -0.3921     -0.0001      0.2591      0.0279
         7        -0.0003      0.0003     -0.3830      0.1467      0.0162
         8        -0.7216      0.3205      0.0001      0.6235      0.0698
         9         0.3015     -0.6706     -0.0001      0.5406      0.0627
        10        -0.0002      0.0003      0.0051      0.0000      0.0000
        11        -0.2291      0.2368     -0.0000      0.1085      0.0132
        12        -1.0484      0.0949     -0.0000      1.1081      0.1414
        13        -0.0004     -0.0004      0.5719      0.3270      0.0426
        14        -0.1948     -0.5455     -0.0006      0.3355      0.0441
        15        -0.0001     -0.0002     -0.0575      0.0033      0.0004
        16        -0.0006     -0.0003      0.5691      0.3239      0.0434
 Ground to excited state transition velocity dipole moments (Au):
       state          X           Y           Z        Dip. S.      Osc.
         1         0.2133      0.0858      0.0000      0.0529      0.2944
         2        -0.0000     -0.0000      0.0100      0.0001      0.0005
         3         0.0624     -0.0538     -0.0000      0.0068      0.0318
         4         0.0000      0.0000      0.0141      0.0002      0.0009
         5         0.0000      0.0000     -0.0151      0.0002      0.0010
         6        -0.0515      0.0564      0.0000      0.0058      0.0241
         7         0.0000     -0.0001      0.0673      0.0045      0.0182
         8         0.1255     -0.0573     -0.0000      0.0190      0.0756
         9        -0.0410      0.1161      0.0000      0.0151      0.0580
        10         0.0000     -0.0001     -0.0018      0.0000      0.0000
        11         0.0378     -0.0524      0.0000      0.0042      0.0152
        12         0.1927     -0.0145      0.0000      0.0373      0.1300
        13         0.0001      0.0001     -0.1141      0.0130      0.0443
        14         0.0402      0.1058      0.0001      0.0128      0.0433
        15         0.0000      0.0000      0.0149      0.0002      0.0007
        16         0.0001      0.0001     -0.1192      0.0142      0.0471
 Ground to excited state transition magnetic dipole moments (Au):
       state          X           Y           Z
         1         0.2480     -0.1794     -0.0003
         2        -0.0001      0.0001     -1.0489
         3         0.0579     -0.2525     -0.0000
         4        -0.0000     -0.0000     -0.5778
         5        -0.0000      0.0000      0.2654
         6         0.1800     -0.0536     -0.0002
         7         0.0000     -0.0001     -1.5553
         8         0.1161     -0.2579      0.0006
         9        -0.1711      0.3399     -0.0003
        10         0.0001     -0.0002      0.1510
        11         0.0704     -0.4325     -0.0001
        12         0.2758     -0.8193     -0.0000
        13        -0.0000      0.0001      1.9652
        14        -0.0933      0.2433     -0.0019
        15         0.0000      0.0001      0.0451
        16        -0.0001      0.0001      1.5121
 Ground to excited state transition velocity quadrupole moments (Au):
       state          XX          YY          ZZ          XY          XZ          YZ
         1        -0.0000     -0.0000     -0.0000     -0.0000      0.1521     -0.1881
         2        -0.1675     -0.1913      0.0335     -0.1881     -0.0000      0.0000
         3        -0.0001     -0.0000      0.0000     -0.0000      0.1109     -0.0161
         4         0.1974     -0.1484      0.0191     -0.2196     -0.0000     -0.0000
         5        -1.0034     -0.0314      0.0371     -0.2371     -0.0000     -0.0000
         6         0.0000     -0.0000      0.0000     -0.0000     -0.0530     -0.0536
         7         0.6146     -0.3517      0.0493     -0.5132      0.0001      0.0000
         8        -0.0002      0.0001     -0.0000      0.0002      0.1894     -0.0616
         9         0.0003     -0.0000      0.0000     -0.0001     -0.1617     -0.0108
        10        -0.0348      0.1098      0.0238      0.0439      0.0001      0.0000
        11         0.0001     -0.0001      0.0000     -0.0001      0.1155     -0.0717
        12        -0.0000     -0.0000      0.0000     -0.0000      0.3210     -0.2571
        13        -1.6047      0.6448     -0.1000      1.0358     -0.0001      0.0001
        14         0.0016     -0.0007      0.0001     -0.0011     -0.1584      0.0683
        15         0.6535      0.1157     -0.0338      0.1946     -0.0000      0.0000
        16        -2.0831      0.5590     -0.0470      0.7071     -0.0000      0.0001
 <0|del|b> * <b|rxdel|0> + <0|del|b> * <b|delr+rdel|0>
 Rotatory Strengths (R) in cgs (10**-40 erg-esu-cm/Gauss)
       state          XX          YY          ZZ    R(velocity)    E-M Angle
         1       -84.0211     37.7328    267.8646     73.8588       57.79
         2       -33.2467    -23.1339      0.0000    -18.7935       90.00
         3        48.5845      6.4893     30.4039     28.4926       36.30
         4       -27.3111    -12.2674     -0.0000    -13.1928       90.00
         5        -0.9853    -17.5194      0.0000     -6.1682       90.00
         6        -0.0739    -14.2724    -39.5809    -17.9757      148.97
         7      -296.3944   -149.3326     -0.0000   -148.5757      179.93
         8        53.9494     14.3810     55.2309     41.1871       41.24
         9       118.2986     15.1500     55.3636     62.9374        7.28
        10        -0.7132     -0.3916      0.0000     -0.3682       90.00
        11        55.5019     -0.0975     42.4884     32.6309       26.56
        12        30.4473      6.6585    202.9424     80.0161       67.10
        13      -618.7904   -191.6553     -0.0000   -270.1486      179.94
        14        76.1597     -1.7983      4.4456     26.2690       41.78
        15         6.3484     -3.9602      0.0000      0.7961       90.00
        16      -465.0327   -168.6860     -0.0000   -211.2396      179.93
 1/2[<0|r|b>*<b|rxdel|0> + (<0|rxdel|b>*<b|r|0>)*]
 Rotatory Strengths (R) in cgs (10**-40 erg-esu-cm/Gauss)
       state          XX          YY          ZZ     R(length)
         1       303.0566    -88.3736     -0.0000     71.5610
         2         0.0000     -0.0000    -63.8975    -21.2992
         3        18.6659     68.6048      0.0000     29.0902
         4        -0.0000     -0.0000    -52.1244    -17.3748
         5         0.0000      0.0000    -19.6421     -6.5474
         6       -41.3101    -14.8709     -0.0000    -18.7270
         7         0.0000      0.0000   -421.2109   -140.4036
         8        59.2308     58.4488     -0.0001     39.2265
         9        36.4882    161.1862     -0.0000     65.8915
        10         0.0000      0.0000     -0.5445     -0.1815
        11        11.4032     72.4159     -0.0000     27.9397
        12       204.4596     55.0046     -0.0000     86.4881
        13        -0.0000      0.0000   -794.7713   -264.9238
        14       -12.8534     93.8361     -0.0008     26.9940
        15         0.0000      0.0000      1.8322      0.6107
        16        -0.0000      0.0000   -608.5342   -202.8447
  1/2[<0|del|b>*<b|r|0> + (<0|r|b>*<b|del|0>)*] (Au)
       state          X           Y           Z        Dip. S.   Osc.(frdel)
         1        -0.3686     -0.0598     -0.0000      0.4284      0.2856
         2        -0.0000     -0.0000     -0.0009      0.0009      0.0006
         3        -0.0284     -0.0207     -0.0000      0.0491      0.0327
         4        -0.0000     -0.0000     -0.0018      0.0018      0.0012
         5         0.0000     -0.0000     -0.0016      0.0016      0.0011
         6        -0.0167     -0.0221     -0.0000      0.0388      0.0259
         7        -0.0000     -0.0000     -0.0258      0.0258      0.0172
         8        -0.0906     -0.0184     -0.0000      0.1089      0.0726
         9        -0.0124     -0.0778     -0.0000      0.0902      0.0601
        10        -0.0000     -0.0000     -0.0000      0.0000      0.0000
        11        -0.0087     -0.0124     -0.0000      0.0211      0.0140
        12        -0.2020     -0.0014     -0.0000      0.2034      0.1356
        13        -0.0000     -0.0000     -0.0652      0.0652      0.0435
        14        -0.0078     -0.0577     -0.0000      0.0655      0.0437
        15        -0.0000     -0.0000     -0.0009      0.0009      0.0006
        16        -0.0000     -0.0000     -0.0678      0.0678      0.0452

 Excitation energies and oscillator strengths:
 
 Excited State   1:      Singlet-A      3.2586 eV  380.48 nm  f=0.2771  <S**2>=0.000
      75 -> 76         0.70056
 This state for optimization and/or second-order correction.
 Total Energy, E(TD-HF/TD-DFT) =  -920.816104054    
 Copying the excited state density for this state as the 1-particle RhoCI density.
 
 Excited State   2:      Singlet-A      3.5796 eV  346.36 nm  f=0.0007  <S**2>=0.000
      74 -> 76         0.67811
      75 -> 77        -0.11061
      75 -> 79        -0.11845
 
 Excited State   3:      Singlet-A      3.8748 eV  319.97 nm  f=0.0337  <S**2>=0.000
      73 -> 76         0.59823
      75 -> 78         0.34672
 
 Excited State   4:      Singlet-A      3.9580 eV  313.25 nm  f=0.0016  <S**2>=0.000
      72 -> 76         0.54435
      75 -> 77         0.34416
      75 -> 79        -0.25518
 
 Excited State   5:      Singlet-A      4.1702 eV  297.31 nm  f=0.0011  <S**2>=0.000
      72 -> 76        -0.30482
      74 -> 76         0.13685
      75 -> 77         0.58640
      75 -> 79         0.11397
 
 Excited State   6:      Singlet-A      4.3883 eV  282.53 nm  f=0.0279  <S**2>=0.000
      71 -> 76         0.46392
      72 -> 77        -0.15656
      73 -> 76        -0.23552
      74 -> 77        -0.34538
      75 -> 78         0.26120
 
 Excited State   7:      Singlet-A      4.5201 eV  274.30 nm  f=0.0162  <S**2>=0.000
      72 -> 76         0.27524
      73 -> 77         0.29027
      75 -> 79         0.56826
 
 Excited State   8:      Singlet-A      4.5693 eV  271.34 nm  f=0.0698  <S**2>=0.000
      71 -> 76         0.50917
      72 -> 77         0.12019
      73 -> 76         0.17206
      74 -> 77         0.25592
      75 -> 78        -0.34200
 
 Excited State   9:      Singlet-A      4.7345 eV  261.87 nm  f=0.0627  <S**2>=0.000
      72 -> 79         0.11810
      73 -> 76        -0.11407
      73 -> 78        -0.11658
      74 -> 77         0.48784
      74 -> 79        -0.27515
      75 -> 78         0.35187
 
 Excited State  10:      Singlet-A      4.8409 eV  256.12 nm  f=0.0000  <S**2>=0.000
      72 -> 78        -0.13084
      73 -> 77         0.36228
      73 -> 79         0.11772
      74 -> 78         0.53943
      75 -> 79        -0.18016
 
 Excited State  11:      Singlet-A      4.9763 eV  249.15 nm  f=0.0132  <S**2>=0.000
      72 -> 77         0.47430
      74 -> 77        -0.19669
      74 -> 79        -0.46058
 
 Excited State  12:      Singlet-A      5.2088 eV  238.03 nm  f=0.1414  <S**2>=0.000
      72 -> 77        -0.12922
      74 -> 79        -0.16704
      75 -> 80         0.65300
 
 Excited State  13:      Singlet-A      5.3225 eV  232.94 nm  f=0.0426  <S**2>=0.000
      71 -> 77        -0.16261
      72 -> 78        -0.15068
      73 -> 77         0.42142
      73 -> 79        -0.37923
      74 -> 78        -0.26621
      75 -> 79        -0.16334
 
 Excited State  14:      Singlet-A      5.3689 eV  230.93 nm  f=0.0441  <S**2>=0.000
      72 -> 77         0.12023
      72 -> 79         0.27908
      73 -> 78         0.61661
 
 Excited State  15:      Singlet-A      5.4113 eV  229.12 nm  f=0.0004  <S**2>=0.000
      70 -> 76         0.10177
      71 -> 77        -0.34781
      71 -> 79         0.14148
      72 -> 78         0.51511
      74 -> 78         0.16175
      74 -> 80        -0.11056
 
 Excited State  16:      Singlet-A      5.4730 eV  226.54 nm  f=0.0434  <S**2>=0.000
      70 -> 76        -0.13433
      71 -> 79        -0.13779
      72 -> 78         0.19521
      73 -> 77         0.23194
      73 -> 79         0.48262
      74 -> 78        -0.26400
      74 -> 80         0.12990
      75 -> 79        -0.10632
      75 -> 81         0.10688
 SavETr:  write IOETrn=   770 NScale= 10 NData=  16 NLR=1 NState=   16 LETran=     298.

 **********************************************************************

            Population analysis using the SCF Density.

 **********************************************************************

 Orbital symmetries:
       Occupied  (A) (A) (A) (A) (A) (A) (A) (A) (A) (A) (A) (A)
                 (A) (A) (A) (A) (A) (A) (A) (A) (A) (A) (A) (A)
                 (A) (A) (A) (A) (A) (A) (A) (A) (A) (A) (A) (A)
                 (A) (A) (A) (A) (A) (A) (A) (A) (A) (A) (A) (A)
                 (A) (A) (A) (A) (A) (A) (A) (A) (A) (A) (A) (A)
                 (A) (A) (A) (A) (A) (A) (A) (A) (A) (A) (A) (A)
                 (A) (A) (A)
       Virtual   (A) (A) (A) (A) (A) (A) (A) (A) (A) (A) (A) (A)
                 (A) (A) (A) (A) (A) (A) (A) (A) (A) (A) (A) (A)
                 (A) (A) (A) (A) (A) (A) (A) (A) (A) (A) (A) (A)
                 (A) (A) (A) (A) (A) (A) (A) (A) (A) (A) (A) (A)
                 (A) (A) (A) (A) (A) (A) (A) (A) (A) (A) (A) (A)
                 (A) (A) (A) (A) (A) (A) (A) (A) (A) (A) (A) (A)
                 (A) (A) (A) (A) (A) (A) (A) (A) (A) (A) (A) (A)
                 (A) (A) (A) (A) (A) (A) (A) (A) (A) (A) (A) (A)
                 (A) (A) (A) (A) (A) (A) (A) (A) (A) (A) (A) (A)
                 (A) (A) (A) (A) (A) (A) (A) (A) (A) (A) (A) (A)
                 (A) (A) (A) (A) (A) (A) (A) (A) (A) (A) (A) (A)
                 (A) (A) (A) (A) (A) (A) (A) (A) (A) (A) (A) (A)
                 (A) (A) (A) (A) (A) (A) (A) (A) (A) (A) (A) (A)
                 (A) (A) (A) (A) (A) (A) (A) (A) (A) (A) (A) (A)
                 (A) (A) (A) (A) (A) (A) (A) (A) (A) (A) (A) (A)
                 (A) (A) (A) (A) (A) (A) (A) (A) (A) (A) (A) (A)
                 (A) (A) (A) (A) (A) (A) (A) (A) (A) (A) (A) (A)
                 (A) (A) (A) (A) (A) (A) (A) (A) (A) (A) (A) (A)
                 (A) (A) (A) (A) (A) (A) (A) (A) (A) (A) (A) (A)
                 (A) (A) (A) (A) (A) (A) (A) (A) (A) (A) (A) (A)
                 (A) (A) (A) (A) (A) (A) (A) (A) (A) (A) (A) (A)
                 (A) (A) (A) (A) (A) (A) (A) (A) (A) (A) (A) (A)
                 (A) (A) (A) (A) (A) (A) (A) (A) (A) (A) (A) (A)
                 (A) (A) (A) (A) (A) (A) (A)
 The electronic state is 1-A.
 Alpha  occ. eigenvalues --  -19.17137 -19.17137 -10.25217 -10.25217 -10.20288
 Alpha  occ. eigenvalues --  -10.20264 -10.19681 -10.19681 -10.19385 -10.19385
 Alpha  occ. eigenvalues --  -10.19283 -10.19283 -10.18903 -10.18903 -10.18149
 Alpha  occ. eigenvalues --  -10.18148 -10.17929 -10.17929 -10.17865 -10.17864
 Alpha  occ. eigenvalues --  -10.17532 -10.17531  -1.05472  -1.05399  -0.86785
 Alpha  occ. eigenvalues --   -0.86025  -0.81330  -0.80863  -0.78689  -0.74996
 Alpha  occ. eigenvalues --   -0.72812  -0.72749  -0.71781  -0.70643  -0.63122
 Alpha  occ. eigenvalues --   -0.62646  -0.60797  -0.60724  -0.59517  -0.56678
 Alpha  occ. eigenvalues --   -0.54884  -0.54370  -0.51825  -0.50151  -0.48931
 Alpha  occ. eigenvalues --   -0.48586  -0.46359  -0.46248  -0.44752  -0.43718
 Alpha  occ. eigenvalues --   -0.42589  -0.42384  -0.41793  -0.41358  -0.40762
 Alpha  occ. eigenvalues --   -0.39804  -0.38939  -0.38577  -0.38491  -0.36870
 Alpha  occ. eigenvalues --   -0.36153  -0.35909  -0.35085  -0.33335  -0.33061
 Alpha  occ. eigenvalues --   -0.32893  -0.31992  -0.30459  -0.29371  -0.28423
 Alpha  occ. eigenvalues --   -0.24505  -0.22415  -0.22038  -0.20937  -0.18793
 Alpha virt. eigenvalues --   -0.05369  -0.01683  -0.00392  -0.00151   0.02853
 Alpha virt. eigenvalues --    0.04938   0.06908   0.07141   0.08955   0.09075
 Alpha virt. eigenvalues --    0.10960   0.11267   0.12186   0.12425   0.14196
 Alpha virt. eigenvalues --    0.15393   0.17084   0.17227   0.17602   0.17777
 Alpha virt. eigenvalues --    0.19545   0.19944   0.20724   0.22298   0.23195
 Alpha virt. eigenvalues --    0.24401   0.24944   0.26909   0.27192   0.29000
 Alpha virt. eigenvalues --    0.29557   0.31447   0.31537   0.33802   0.33919
 Alpha virt. eigenvalues --    0.35125   0.35756   0.36620   0.38016   0.39109
 Alpha virt. eigenvalues --    0.39827   0.46642   0.47785   0.47934   0.50077
 Alpha virt. eigenvalues --    0.50641   0.51458   0.52143   0.52644   0.53566
 Alpha virt. eigenvalues --    0.53639   0.55057   0.55190   0.55431   0.55516
 Alpha virt. eigenvalues --    0.56851   0.57306   0.58024   0.58072   0.59210
 Alpha virt. eigenvalues --    0.59577   0.59663   0.60114   0.60203   0.61232
 Alpha virt. eigenvalues --    0.61311   0.61838   0.62064   0.62816   0.63066
 Alpha virt. eigenvalues --    0.63493   0.63922   0.64305   0.64397   0.64747
 Alpha virt. eigenvalues --    0.65266   0.66002   0.68058   0.69094   0.69661
 Alpha virt. eigenvalues --    0.71286   0.71691   0.73581   0.73616   0.77833
 Alpha virt. eigenvalues --    0.78714   0.79182   0.81059   0.82437   0.82553
 Alpha virt. eigenvalues --    0.84101   0.84349   0.84440   0.84746   0.85426
 Alpha virt. eigenvalues --    0.85816   0.86414   0.86416   0.87428   0.88040
 Alpha virt. eigenvalues --    0.89557   0.89848   0.90703   0.93273   0.93683
 Alpha virt. eigenvalues --    0.93793   0.94689   0.95168   0.95568   0.97142
 Alpha virt. eigenvalues --    0.98317   0.98380   0.99630   1.00203   1.01540
 Alpha virt. eigenvalues --    1.03677   1.03736   1.04497   1.04569   1.06916
 Alpha virt. eigenvalues --    1.07704   1.09428   1.09536   1.11732   1.12063
 Alpha virt. eigenvalues --    1.12588   1.13450   1.16949   1.17781   1.20890
 Alpha virt. eigenvalues --    1.22390   1.22684   1.23554   1.24825   1.27932
 Alpha virt. eigenvalues --    1.28623   1.30071   1.30118   1.31367   1.31882
 Alpha virt. eigenvalues --    1.34256   1.37071   1.37998   1.39329   1.41592
 Alpha virt. eigenvalues --    1.44320   1.44490   1.45969   1.46588   1.47613
 Alpha virt. eigenvalues --    1.47693   1.49087   1.50808   1.52037   1.52692
 Alpha virt. eigenvalues --    1.53006   1.54221   1.57152   1.59147   1.59353
 Alpha virt. eigenvalues --    1.62582   1.64785   1.69496   1.69594   1.72595
 Alpha virt. eigenvalues --    1.75120   1.75385   1.76575   1.78579   1.79272
 Alpha virt. eigenvalues --    1.79642   1.79952   1.81219   1.82321   1.82667
 Alpha virt. eigenvalues --    1.82931   1.85173   1.86354   1.88263   1.88477
 Alpha virt. eigenvalues --    1.89997   1.90055   1.91241   1.91684   1.93351
 Alpha virt. eigenvalues --    1.95132   1.96863   1.97518   1.99099   1.99477
 Alpha virt. eigenvalues --    2.01585   2.02545   2.03728   2.04510   2.05837
 Alpha virt. eigenvalues --    2.05980   2.07255   2.08996   2.11514   2.14173
 Alpha virt. eigenvalues --    2.14362   2.15941   2.17257   2.19209   2.21746
 Alpha virt. eigenvalues --    2.22034   2.23752   2.23885   2.28018   2.28137
 Alpha virt. eigenvalues --    2.29046   2.31259   2.31809   2.32424   2.32620
 Alpha virt. eigenvalues --    2.34627   2.35090   2.35904   2.36611   2.39790
 Alpha virt. eigenvalues --    2.40971   2.41548   2.43506   2.47985   2.49554
 Alpha virt. eigenvalues --    2.51488   2.55171   2.56670   2.59185   2.59639
 Alpha virt. eigenvalues --    2.61117   2.61319   2.63641   2.64426   2.65735
 Alpha virt. eigenvalues --    2.66721   2.67714   2.69277   2.71140   2.72600
 Alpha virt. eigenvalues --    2.75156   2.75356   2.77154   2.81847   2.82700
 Alpha virt. eigenvalues --    2.83018   2.85915   2.86969   2.87761   2.92694
 Alpha virt. eigenvalues --    2.93226   2.96641   3.02013   3.04079   3.04859
 Alpha virt. eigenvalues --    3.06300   3.14976   3.31174   3.34849   3.43087
 Alpha virt. eigenvalues --    3.45191   3.94982   4.01869   4.10169   4.10407
 Alpha virt. eigenvalues --    4.11101   4.11892   4.13707   4.14829   4.16500
 Alpha virt. eigenvalues --    4.17239   4.21129   4.24621   4.31283   4.34142
 Alpha virt. eigenvalues --    4.40675   4.40798   4.43987   4.48394   4.55653
 Alpha virt. eigenvalues --    4.62959   4.74382   4.84189
          Condensed to atoms (all electrons):
               1          2          3          4          5          6
     1  C    4.900920   0.534473  -0.021011  -0.036181  -0.033008   0.509913
     2  C    0.534473   5.014184   0.463890  -0.027915  -0.057505  -0.023037
     3  C   -0.021011   0.463890   4.928851   0.465839  -0.041697  -0.032412
     4  C   -0.036181  -0.027915   0.465839   4.735411   0.466464  -0.014878
     5  C   -0.033008  -0.057505  -0.041697   0.466464   5.049208   0.533694
     6  C    0.509913  -0.023037  -0.032412  -0.014878   0.533694   4.886875
     7  H    0.357697  -0.039866   0.003925   0.000792   0.004850  -0.044929
     8  H   -0.041167   0.346749  -0.041294   0.004938   0.000741   0.004892
     9  C    0.005582  -0.057276   0.366585  -0.022584   0.007544  -0.000201
    10  C    0.000199   0.010453  -0.042690   0.456854  -0.062028   0.006660
    11  H    0.004606   0.000500   0.004363  -0.044395   0.354872  -0.044734
    12  H   -0.041371   0.004567   0.000802   0.003392  -0.039235   0.355566
    13  C    0.000043   0.000694  -0.047364  -0.016371   0.007451  -0.000385
    14  C   -0.000088   0.002726  -0.004837  -0.043691   0.000217   0.000018
    15  H   -0.000013  -0.000181   0.005340  -0.040567  -0.008384   0.000170
    16  H   -0.000000   0.000016   0.000603   0.003514  -0.000212   0.000004
    17  C    0.000000  -0.000000  -0.000000   0.000000  -0.000000  -0.000000
    18  C   -0.000000   0.000000  -0.000000  -0.000000   0.000000  -0.000000
    19  C   -0.000001   0.000012  -0.000048  -0.000000  -0.000000   0.000000
    20  C    0.000009   0.000078   0.000182  -0.000048  -0.000000  -0.000000
    21  C    0.000000   0.000001   0.000078   0.000012   0.000000  -0.000000
    22  C   -0.000000   0.000000   0.000009  -0.000001  -0.000000   0.000000
    23  H   -0.000000  -0.000000   0.000000   0.000000  -0.000000   0.000000
    24  H   -0.000000  -0.000000   0.000000  -0.000000  -0.000000   0.000000
    25  H   -0.000000   0.000000  -0.000000   0.000000  -0.000000   0.000000
    26  C    0.000001  -0.000039   0.000001   0.000000  -0.000000   0.000000
    27  C    0.000978  -0.014610  -0.055444   0.005886  -0.000124  -0.000024
    28  H    0.000001  -0.000015  -0.000096  -0.000047  -0.000001   0.000000
    29  H   -0.000000  -0.000000  -0.000000   0.000000   0.000000  -0.000000
    30  C    0.000147   0.002106  -0.009394   0.000259   0.000005  -0.000006
    31  C   -0.000059  -0.000395   0.000675   0.000003  -0.000000   0.000001
    32  H    0.000001   0.000027  -0.000002  -0.000000   0.000000  -0.000000
    33  O    0.000000  -0.000062   0.001827   0.000374   0.000000  -0.000000
    34  H   -0.000000   0.000006  -0.000100  -0.000069  -0.000001   0.000000
    35  O   -0.002007  -0.017818  -0.005457  -0.000538   0.000027  -0.000026
    36  H    0.000217   0.001400   0.000348   0.000021  -0.000002  -0.000002
               7          8          9         10         11         12
     1  C    0.357697  -0.041167   0.005582   0.000199   0.004606  -0.041371
     2  C   -0.039866   0.346749  -0.057276   0.010453   0.000500   0.004567
     3  C    0.003925  -0.041294   0.366585  -0.042690   0.004363   0.000802
     4  C    0.000792   0.004938  -0.022584   0.456854  -0.044395   0.003392
     5  C    0.004850   0.000741   0.007544  -0.062028   0.354872  -0.039235
     6  C   -0.044929   0.004892  -0.000201   0.006660  -0.044734   0.355566
     7  H    0.608490  -0.006772  -0.000133   0.000007  -0.000212  -0.004860
     8  H   -0.006772   0.600861  -0.010696  -0.000195   0.000019  -0.000197
     9  C   -0.000133  -0.010696   5.155991  -0.038051  -0.000132   0.000011
    10  C    0.000007  -0.000195  -0.038051   5.031054  -0.009224  -0.000202
    11  H   -0.000212   0.000019  -0.000132  -0.009224   0.608872  -0.005442
    12  H   -0.004860  -0.000197   0.000011  -0.000202  -0.005442   0.602364
    13  C    0.000000   0.000022  -0.036588   0.498275   0.000363   0.000004
    14  C    0.000001  -0.000335   0.450768  -0.015392   0.000004  -0.000000
    15  H   -0.000000   0.000004   0.000081   0.350715   0.006627  -0.000013
    16  H    0.000000  -0.000000   0.004430  -0.027247  -0.000009  -0.000000
    17  C   -0.000000   0.000000  -0.000024   0.000000   0.000000   0.000000
    18  C    0.000000  -0.000001  -0.000124  -0.000000  -0.000000  -0.000000
    19  C    0.000000  -0.000047   0.005886   0.000000   0.000000  -0.000000
    20  C   -0.000000  -0.000096  -0.055442   0.000001  -0.000000   0.000000
    21  C   -0.000000  -0.000015  -0.014611  -0.000039   0.000000  -0.000000
    22  C   -0.000000   0.000001   0.000978   0.000001  -0.000000  -0.000000
    23  H   -0.000000  -0.000001   0.000007   0.000000   0.000000   0.000000
    24  H   -0.000000  -0.000000   0.000000   0.000000  -0.000000   0.000000
    25  H    0.000000   0.000000   0.000001  -0.000000   0.000000  -0.000000
    26  C   -0.000000   0.000065  -0.000248  -0.000000  -0.000000   0.000000
    27  C    0.000007   0.000945   0.335790  -0.000248   0.000001   0.000000
    28  H   -0.000000  -0.000007   0.000946   0.000065   0.000000  -0.000000
    29  H    0.000000  -0.000000   0.000007  -0.000000   0.000000  -0.000000
    30  C    0.000017   0.015957  -0.043335  -0.000005   0.000000  -0.000000
    31  C   -0.000001   0.001631   0.006226  -0.000000   0.000000  -0.000000
    32  H    0.000000  -0.000006  -0.000079   0.000000  -0.000000  -0.000000
    33  O   -0.000000  -0.000001  -0.061795   0.005170  -0.000000   0.000000
    34  H    0.000000   0.000000   0.006075   0.000997   0.000000  -0.000000
    35  O   -0.000010  -0.010645   0.004436  -0.000002   0.000000   0.000001
    36  H    0.000015   0.001282  -0.000502   0.000000  -0.000000  -0.000000
              13         14         15         16         17         18
     1  C    0.000043  -0.000088  -0.000013  -0.000000   0.000000  -0.000000
     2  C    0.000694   0.002726  -0.000181   0.000016  -0.000000   0.000000
     3  C   -0.047364  -0.004837   0.005340   0.000603  -0.000000  -0.000000
     4  C   -0.016371  -0.043691  -0.040567   0.003514   0.000000  -0.000000
     5  C    0.007451   0.000217  -0.008384  -0.000212  -0.000000   0.000000
     6  C   -0.000385   0.000018   0.000170   0.000004  -0.000000  -0.000000
     7  H    0.000000   0.000001  -0.000000   0.000000  -0.000000   0.000000
     8  H    0.000022  -0.000335   0.000004  -0.000000   0.000000  -0.000001
     9  C   -0.036588   0.450768   0.000081   0.004430  -0.000024  -0.000124
    10  C    0.498275  -0.015392   0.350715  -0.027247   0.000000  -0.000000
    11  H    0.000363   0.000004   0.006627  -0.000009   0.000000  -0.000000
    12  H    0.000004  -0.000000  -0.000013  -0.000000   0.000000  -0.000000
    13  C    5.105918   0.444406  -0.041703   0.342308   0.000001  -0.000000
    14  C    0.444406   4.751854   0.004247  -0.047970  -0.000006   0.000005
    15  H   -0.041703   0.004247   0.594758  -0.005577   0.000000  -0.000000
    16  H    0.342308  -0.047970  -0.005577   0.606489  -0.000000   0.000000
    17  C    0.000001  -0.000006   0.000000  -0.000000   4.886867   0.533699
    18  C   -0.000000   0.000005  -0.000000   0.000000   0.533699   5.049200
    19  C    0.000003   0.000259   0.000000  -0.000000  -0.014881   0.466468
    20  C    0.000675  -0.009393   0.000000  -0.000002  -0.032411  -0.041698
    21  C   -0.000395   0.002103  -0.000000   0.000027  -0.023039  -0.057503
    22  C   -0.000059   0.000147  -0.000000   0.000001   0.509917  -0.033009
    23  H   -0.000000  -0.000000   0.000000  -0.000000   0.000170  -0.008384
    24  H   -0.000000  -0.000000   0.000000  -0.000000   0.355567  -0.039235
    25  H    0.000000   0.000000   0.000000  -0.000000  -0.044733   0.354871
    26  C   -0.000000  -0.000005   0.000000   0.000000   0.006660  -0.062027
    27  C    0.006226  -0.043336   0.000007  -0.000079  -0.000201   0.007543
    28  H    0.001633   0.015964  -0.000001  -0.000006   0.004891   0.000741
    29  H   -0.000001   0.000017  -0.000000   0.000000  -0.044928   0.004850
    30  C   -0.000117   0.004229  -0.000000   0.000001   0.000018   0.000217
    31  C    0.000001  -0.000117  -0.000000  -0.000000  -0.000384   0.007450
    32  H   -0.000000   0.000001  -0.000000   0.000000   0.000004  -0.000212
    33  O   -0.047532   0.235190  -0.000063  -0.006832  -0.000026   0.000028
    34  H   -0.003399  -0.030190  -0.000025   0.010415  -0.000002  -0.000002
    35  O   -0.000002   0.000222   0.000000  -0.000000  -0.000000   0.000000
    36  H   -0.000000   0.000002  -0.000000   0.000000   0.000000  -0.000001
              19         20         21         22         23         24
     1  C   -0.000001   0.000009   0.000000  -0.000000  -0.000000  -0.000000
     2  C    0.000012   0.000078   0.000001   0.000000  -0.000000  -0.000000
     3  C   -0.000048   0.000182   0.000078   0.000009   0.000000   0.000000
     4  C   -0.000000  -0.000048   0.000012  -0.000001   0.000000  -0.000000
     5  C   -0.000000  -0.000000   0.000000  -0.000000  -0.000000  -0.000000
     6  C    0.000000  -0.000000  -0.000000   0.000000   0.000000   0.000000
     7  H    0.000000  -0.000000  -0.000000  -0.000000  -0.000000  -0.000000
     8  H   -0.000047  -0.000096  -0.000015   0.000001  -0.000001  -0.000000
     9  C    0.005886  -0.055442  -0.014611   0.000978   0.000007   0.000000
    10  C    0.000000   0.000001  -0.000039   0.000001   0.000000   0.000000
    11  H    0.000000  -0.000000   0.000000  -0.000000   0.000000  -0.000000
    12  H   -0.000000   0.000000  -0.000000  -0.000000   0.000000   0.000000
    13  C    0.000003   0.000675  -0.000395  -0.000059  -0.000000  -0.000000
    14  C    0.000259  -0.009393   0.002103   0.000147  -0.000000  -0.000000
    15  H    0.000000   0.000000  -0.000000  -0.000000   0.000000   0.000000
    16  H   -0.000000  -0.000002   0.000027   0.000001  -0.000000  -0.000000
    17  C   -0.014881  -0.032411  -0.023039   0.509917   0.000170   0.355567
    18  C    0.466468  -0.041698  -0.057503  -0.033009  -0.008384  -0.039235
    19  C    4.735400   0.465852  -0.027912  -0.036180  -0.040566   0.003392
    20  C    0.465852   4.928856   0.463899  -0.021015   0.005340   0.000802
    21  C   -0.027912   0.463899   5.014173   0.534472  -0.000181   0.004567
    22  C   -0.036180  -0.021015   0.534472   4.900927  -0.000013  -0.041371
    23  H   -0.040566   0.005340  -0.000181  -0.000013   0.594757  -0.000013
    24  H    0.003392   0.000802   0.004567  -0.041371  -0.000013   0.602363
    25  H   -0.044394   0.004363   0.000500   0.004606   0.006627  -0.005442
    26  C    0.456855  -0.042698   0.010452   0.000199   0.350715  -0.000202
    27  C   -0.022588   0.366568  -0.057270   0.005581   0.000081   0.000011
    28  H    0.004938  -0.041293   0.346744  -0.041171   0.000004  -0.000197
    29  H    0.000792   0.003925  -0.039868   0.357697  -0.000000  -0.004860
    30  C   -0.043689  -0.004834   0.002724  -0.000088   0.004247  -0.000000
    31  C   -0.016375  -0.047365   0.000694   0.000043  -0.041702   0.000004
    32  H    0.003514   0.000603   0.000016  -0.000000  -0.005577  -0.000000
    33  O   -0.000539  -0.005461  -0.017806  -0.002007   0.000000   0.000001
    34  H    0.000021   0.000349   0.001400   0.000217  -0.000000  -0.000000
    35  O    0.000374   0.001827  -0.000062   0.000000  -0.000063   0.000000
    36  H   -0.000069  -0.000100   0.000006  -0.000000  -0.000025  -0.000000
              25         26         27         28         29         30
     1  C   -0.000000   0.000001   0.000978   0.000001  -0.000000   0.000147
     2  C    0.000000  -0.000039  -0.014610  -0.000015  -0.000000   0.002106
     3  C   -0.000000   0.000001  -0.055444  -0.000096  -0.000000  -0.009394
     4  C    0.000000   0.000000   0.005886  -0.000047   0.000000   0.000259
     5  C   -0.000000  -0.000000  -0.000124  -0.000001   0.000000   0.000005
     6  C    0.000000   0.000000  -0.000024   0.000000  -0.000000  -0.000006
     7  H    0.000000  -0.000000   0.000007  -0.000000   0.000000   0.000017
     8  H    0.000000   0.000065   0.000945  -0.000007  -0.000000   0.015957
     9  C    0.000001  -0.000248   0.335790   0.000946   0.000007  -0.043335
    10  C   -0.000000  -0.000000  -0.000248   0.000065  -0.000000  -0.000005
    11  H    0.000000  -0.000000   0.000001   0.000000   0.000000   0.000000
    12  H   -0.000000   0.000000   0.000000  -0.000000  -0.000000  -0.000000
    13  C    0.000000  -0.000000   0.006226   0.001633  -0.000001  -0.000117
    14  C    0.000000  -0.000005  -0.043336   0.015964   0.000017   0.004229
    15  H    0.000000   0.000000   0.000007  -0.000001  -0.000000  -0.000000
    16  H   -0.000000   0.000000  -0.000079  -0.000006   0.000000   0.000001
    17  C   -0.044733   0.006660  -0.000201   0.004891  -0.044928   0.000018
    18  C    0.354871  -0.062027   0.007543   0.000741   0.004850   0.000217
    19  C   -0.044394   0.456855  -0.022588   0.004938   0.000792  -0.043689
    20  C    0.004363  -0.042698   0.366568  -0.041293   0.003925  -0.004834
    21  C    0.000500   0.010452  -0.057270   0.346744  -0.039868   0.002724
    22  C    0.004606   0.000199   0.005581  -0.041171   0.357697  -0.000088
    23  H    0.006627   0.350715   0.000081   0.000004  -0.000000   0.004247
    24  H   -0.005442  -0.000202   0.000011  -0.000197  -0.004860  -0.000000
    25  H    0.608870  -0.009224  -0.000132   0.000019  -0.000212   0.000004
    26  C   -0.009224   5.031041  -0.038045  -0.000195   0.000007  -0.015400
    27  C   -0.000132  -0.038045   5.156010  -0.010696  -0.000133   0.450761
    28  H    0.000019  -0.000195  -0.010696   0.600878  -0.006772  -0.000336
    29  H   -0.000212   0.000007  -0.000133  -0.006772   0.608492   0.000001
    30  C    0.000004  -0.015400   0.450761  -0.000336   0.000001   4.751838
    31  C    0.000363   0.498290  -0.036584   0.000022   0.000000   0.444405
    32  H   -0.000009  -0.027248   0.004431  -0.000000   0.000000  -0.047974
    33  O    0.000000  -0.000002   0.004440  -0.010655  -0.000010   0.000222
    34  H   -0.000000   0.000000  -0.000502   0.001281   0.000015   0.000002
    35  O   -0.000000   0.005169  -0.061799  -0.000001  -0.000000   0.235208
    36  H    0.000000   0.000998   0.006073   0.000000   0.000000  -0.030201
              31         32         33         34         35         36
     1  C   -0.000059   0.000001   0.000000  -0.000000  -0.002007   0.000217
     2  C   -0.000395   0.000027  -0.000062   0.000006  -0.017818   0.001400
     3  C    0.000675  -0.000002   0.001827  -0.000100  -0.005457   0.000348
     4  C    0.000003  -0.000000   0.000374  -0.000069  -0.000538   0.000021
     5  C   -0.000000   0.000000   0.000000  -0.000001   0.000027  -0.000002
     6  C    0.000001  -0.000000  -0.000000   0.000000  -0.000026  -0.000002
     7  H   -0.000001   0.000000  -0.000000   0.000000  -0.000010   0.000015
     8  H    0.001631  -0.000006  -0.000001   0.000000  -0.010645   0.001282
     9  C    0.006226  -0.000079  -0.061795   0.006075   0.004436  -0.000502
    10  C   -0.000000   0.000000   0.005170   0.000997  -0.000002   0.000000
    11  H    0.000000  -0.000000  -0.000000   0.000000   0.000000  -0.000000
    12  H   -0.000000  -0.000000   0.000000  -0.000000   0.000001  -0.000000
    13  C    0.000001  -0.000000  -0.047532  -0.003399  -0.000002  -0.000000
    14  C   -0.000117   0.000001   0.235190  -0.030190   0.000222   0.000002
    15  H   -0.000000  -0.000000  -0.000063  -0.000025   0.000000  -0.000000
    16  H   -0.000000   0.000000  -0.006832   0.010415  -0.000000   0.000000
    17  C   -0.000384   0.000004  -0.000026  -0.000002  -0.000000   0.000000
    18  C    0.007450  -0.000212   0.000028  -0.000002   0.000000  -0.000001
    19  C   -0.016375   0.003514  -0.000539   0.000021   0.000374  -0.000069
    20  C   -0.047365   0.000603  -0.005461   0.000349   0.001827  -0.000100
    21  C    0.000694   0.000016  -0.017806   0.001400  -0.000062   0.000006
    22  C    0.000043  -0.000000  -0.002007   0.000217   0.000000  -0.000000
    23  H   -0.041702  -0.005577   0.000000  -0.000000  -0.000063  -0.000025
    24  H    0.000004  -0.000000   0.000001  -0.000000   0.000000  -0.000000
    25  H    0.000363  -0.000009   0.000000  -0.000000  -0.000000   0.000000
    26  C    0.498290  -0.027248  -0.000002   0.000000   0.005169   0.000998
    27  C   -0.036584   0.004431   0.004440  -0.000502  -0.061799   0.006073
    28  H    0.000022  -0.000000  -0.010655   0.001281  -0.000001   0.000000
    29  H    0.000000   0.000000  -0.000010   0.000015  -0.000000   0.000000
    30  C    0.444405  -0.047974   0.000222   0.000002   0.235208  -0.030201
    31  C    5.105921   0.342307  -0.000002  -0.000000  -0.047529  -0.003397
    32  H    0.342307   0.606490  -0.000000   0.000000  -0.006832   0.010416
    33  O   -0.000002  -0.000000   8.284988   0.236072  -0.000000  -0.000000
    34  H   -0.000000   0.000000   0.236072   0.372709  -0.000000   0.000000
    35  O   -0.047529  -0.006832  -0.000000  -0.000000   8.284980   0.236081
    36  H   -0.003397   0.010416  -0.000000   0.000000   0.236081   0.372707
 Mulliken charges:
               1
     1  C   -0.139883
     2  C   -0.143163
     3  C    0.058528
     4  C    0.103525
     5  C   -0.182875
     6  C   -0.137160
     7  H    0.120982
     8  H    0.133368
     9  C   -0.009523
    10  C   -0.165125
    11  H    0.123920
    12  H    0.124616
    13  C   -0.214106
    14  C    0.282982
    15  H    0.134578
    16  H    0.120127
    17  C   -0.137159
    18  C   -0.182874
    19  C    0.103522
    20  C    0.058527
    21  C   -0.143167
    22  C   -0.139884
    23  H    0.134578
    24  H    0.124616
    25  H    0.123921
    26  C   -0.165119
    27  C   -0.009522
    28  H    0.133359
    29  H    0.120980
    30  C    0.283012
    31  C   -0.214125
    32  H    0.120130
    33  O   -0.615518
    34  H    0.404732
    35  O   -0.615534
    36  H    0.404735
 Sum of Mulliken charges =  -0.00000
 Mulliken charges with hydrogens summed into heavy atoms:
               1
     1  C   -0.018901
     2  C   -0.009795
     3  C    0.058528
     4  C    0.103525
     5  C   -0.058956
     6  C   -0.012544
     9  C   -0.009523
    10  C   -0.030547
    13  C   -0.093979
    14  C    0.282982
    17  C   -0.012543
    18  C   -0.058954
    19  C    0.103522
    20  C    0.058527
    21  C   -0.009808
    22  C   -0.018904
    26  C   -0.030540
    27  C   -0.009522
    30  C    0.283012
    31  C   -0.093995
    33  O   -0.210786
    35  O   -0.210800
 Electronic spatial extent (au):  <R**2>=           6102.8313
 Charge=             -0.0000 electrons
 Dipole moment (field-independent basis, Debye):
    X=              0.0004    Y=             -0.0001    Z=              0.7583  Tot=              0.7583
 Quadrupole moment (field-independent basis, Debye-Ang):
   XX=           -116.3402   YY=            -96.8769   ZZ=           -130.3839
   XY=              5.4816   XZ=             -0.0004   YZ=             -0.0022
 Traceless Quadrupole moment (field-independent basis, Debye-Ang):
   XX=             -1.8065   YY=             17.6568   ZZ=            -15.8502
   XY=              5.4816   XZ=             -0.0004   YZ=             -0.0022
 Octapole moment (field-independent basis, Debye-Ang**2):
  XXX=              0.0017  YYY=              0.0001  ZZZ=             -7.7143  XYY=              0.0069
  XXY=             -0.0005  XXZ=             14.1713  XZZ=             -0.0003  YZZ=              0.0058
  YYZ=            -15.7961  XYZ=            -17.2698
 Hexadecapole moment (field-independent basis, Debye-Ang**3):
 XXXX=          -5204.1192 YYYY=          -1751.6185 ZZZZ=           -511.5890 XXXY=             52.4220
 XXXZ=             -0.0100 YYYX=             15.4774 YYYZ=             -0.0241 ZZZX=             -0.0002
 ZZZY=             -0.0104 XXYY=          -1228.3849 XXZZ=          -1076.2157 YYZZ=           -432.2991
 XXYZ=              0.0014 YYXZ=             -0.0046 ZZXY=            -32.2278
 N-N= 1.675823846295D+03 E-N=-5.491591135733D+03  KE= 9.122244488232D+02
 Unable to Open any file for archive entry.
 1\1\GINC-CCC167\SP\RB3LYP TD-FC\6-31G(d)\C20H14O2\ROOT\20-Feb-2025\0\\
 # td=(nstat=16) b3lyp/6-31g(d)\\binol | No.11\\0,1\C,0,-3.196609,-1.78
 902,-1.151276\C,0,-1.989932,-1.300175,-0.691601\C,0,-1.880284,-0.09804
 6,0.062266\C,0,-3.080964,0.693822,0.070993\C,0,-4.327745,0.14633,-0.33
 1496\C,0,-4.401321,-1.101439,-0.903961\H,0,-3.207828,-2.705712,-1.7357
 12\H,0,-1.095257,-1.826437,-0.983048\C,0,-0.622861,0.428406,0.661463\C
 ,0,-2.981595,2.091323,0.285999\H,0,-5.214264,0.769926,-0.239833\H,0,-5
 .352626,-1.511944,-1.230813\C,0,-1.745448,2.646093,0.422135\C,0,-0.586
 758,1.830778,0.558637\H,0,-3.876152,2.708133,0.262489\H,0,-1.62523,3.7
 24874,0.507868\C,0,4.401218,1.101568,-0.904001\C,0,4.327727,-0.146198,
 -0.331513\C,0,3.080983,-0.69376,0.070992\C,0,1.880258,0.098028,0.06224
 3\C,0,1.989816,1.300137,-0.691659\C,0,3.196458,1.789051,-1.151356\H,0,
 3.876281,-2.708031,0.262528\H,0,5.352496,1.512131,-1.230856\H,0,5.2142
 89,-0.76973,-0.239831\C,0,2.981692,-2.091269,0.286014\C,0,0.622853,-0.
 428486,0.661465\H,0,1.095092,1.826323,-0.98312\H,0,3.207613,2.705727,-
 1.735819\C,0,0.58682,-1.830849,0.558547\C,0,1.745565,-2.646099,0.42207
 9\H,0,1.625391,-3.724891,0.507746\O,0,0.522937,2.485034,1.053822\H,0,0
 .338819,3.435749,1.091422\O,0,-0.522864,-2.485212,1.053613\H,0,-0.3384
 55,-3.435851,1.091676\\Version=ES64L-G16RevC.02\State=1-A\HF=-920.9358
 551\RMSD=9.152e-09\PG=C01 [X(C20H14O2)]\\@
 The archive entry for this job was punched.


 CHRISTMAS IS ON TOP OF A STEEP HILL.
 THE CLOSER YOU GET, THE STEEPER THE HILL IS.
          -- LINUS, OF PEANUTS
 Job cpu time:       0 days  0 hours 42 minutes 42.4 seconds.
 Elapsed time:       0 days  0 hours  5 minutes 35.9 seconds.
 File lengths (MBytes):  RWF=   1295 Int=      0 D2E=      0 Chk=     78 Scr=      1
 Normal termination of Gaussian 16 at Thu Feb 20 09:32:42 2025.
