 Entering Gaussian System, Link 0=/apl/gaussian/16c02/g16/._.g16
 Initial command:
 /apl/gaussian/16c02/g16/l1.exe "/lwork/users/ux8/8286817.ccpbs1/gaussian/Gau-941041.inp" -scrdir="/lwork/users/ux8/8286817.ccpbs1/gaussian/"
 Default CPUs for threads: 80,81,82,83,84,85,86,87
 Default is to use a total of   8 processors:
                                8 via shared-memory
                                1 via Linda
 Entering Link 1 = /apl/gaussian/16c02/g16/l1.exe PID=    941042.
  
 Copyright (c) 1988-2021, Gaussian, Inc.  All Rights Reserved.
  
 This is part of the Gaussian(R) 16 program.  It is based on
 the Gaussian(R) 09 system (copyright 2009, Gaussian, Inc.),
 the Gaussian(R) 03 system (copyright 2003, Gaussian, Inc.),
 the Gaussian(R) 98 system (copyright 1998, Gaussian, Inc.),
 the Gaussian(R) 94 system (copyright 1995, Gaussian, Inc.),
 the Gaussian 92(TM) system (copyright 1992, Gaussian, Inc.),
 the Gaussian 90(TM) system (copyright 1990, Gaussian, Inc.),
 the Gaussian 88(TM) system (copyright 1988, Gaussian, Inc.),
 the Gaussian 86(TM) system (copyright 1986, Carnegie Mellon
 University), and the Gaussian 82(TM) system (copyright 1983,
 Carnegie Mellon University). Gaussian is a federally registered
 trademark of Gaussian, Inc.
  
 This software contains proprietary and confidential information,
 including trade secrets, belonging to Gaussian, Inc.
  
 This software is provided under written license and may be
 used, copied, transmitted, or stored only in accord with that
 written license.
  
 The following legend is applicable only to US Government
 contracts under FAR:
  
                    RESTRICTED RIGHTS LEGEND
  
 Use, reproduction and disclosure by the US Government is
 subject to restrictions as set forth in subparagraphs (a)
 and (c) of the Commercial Computer Software - Restricted
 Rights clause in FAR 52.227-19.
  
 Gaussian, Inc.
 340 Quinnipiac St., Bldg. 40, Wallingford CT 06492
  
  
 ---------------------------------------------------------------
 Warning -- This program may not be used in any manner that
 competes with the business of Gaussian, Inc. or will provide
 assistance to any competitor of Gaussian, Inc.  The licensee
 of this program is prohibited from giving any competitor of
 Gaussian, Inc. access to this program.  By using this program,
 the user acknowledges that Gaussian, Inc. is engaged in the
 business of creating and licensing software in the field of
 computational chemistry and represents and warrants to the
 licensee that it is not a competitor of Gaussian, Inc. and that
 it will not use this program in any manner prohibited above.
 ---------------------------------------------------------------
  

 Cite this work as:
 Gaussian 16, Revision C.02,
 M. J. Frisch, G. W. Trucks, H. B. Schlegel, G. E. Scuseria, 
 M. A. Robb, J. R. Cheeseman, G. Scalmani, V. Barone, 
 G. A. Petersson, H. Nakatsuji, X. Li, M. Caricato, A. V. Marenich, 
 J. Bloino, B. G. Janesko, R. Gomperts, B. Mennucci, H. P. Hratchian, 
 J. V. Ortiz, A. F. Izmaylov, J. L. Sonnenberg, D. Williams-Young, 
 F. Ding, F. Lipparini, F. Egidi, J. Goings, B. Peng, A. Petrone, 
 T. Henderson, D. Ranasinghe, V. G. Zakrzewski, J. Gao, N. Rega, 
 G. Zheng, W. Liang, M. Hada, M. Ehara, K. Toyota, R. Fukuda, 
 J. Hasegawa, M. Ishida, T. Nakajima, Y. Honda, O. Kitao, H. Nakai, 
 T. Vreven, K. Throssell, J. A. Montgomery, Jr., J. E. Peralta, 
 F. Ogliaro, M. J. Bearpark, J. J. Heyd, E. N. Brothers, K. N. Kudin, 
 V. N. Staroverov, T. A. Keith, R. Kobayashi, J. Normand, 
 K. Raghavachari, A. P. Rendell, J. C. Burant, S. S. Iyengar, 
 J. Tomasi, M. Cossi, J. M. Millam, M. Klene, C. Adamo, R. Cammi, 
 J. W. Ochterski, R. L. Martin, K. Morokuma, O. Farkas, 
 J. B. Foresman, and D. J. Fox, Gaussian, Inc., Wallingford CT, 2019.
 
 ******************************************
 Gaussian 16:  ES64L-G16RevC.02  7-Dec-2021
                21-Feb-2025 
 ******************************************
 %chk=lactic_acid.chk
 %mem=9600MB
 SetSPE:  set environment variable "OMP_PROC_BIND" = "true"
 SetSPE:  set environment variable "OMP_PLACES" = "{80},{81},{82},{83},{84},{85},{86},{87}"
 ------------------------------
 # opt=modredundant b3lyp/6-31g
 ------------------------------
 1/18=120,19=15,26=3,38=1/1,3;
 2/9=110,12=2,17=6,18=5,40=1/2;
 3/5=1,6=6,11=2,25=1,30=1,71=1,74=-5/1,2,3;
 4//1;
 5/5=2,38=5/2;
 6/7=2,8=2,9=2,10=2,28=1/1;
 7//1,2,3,16;
 1/18=20,19=15,26=3/3(2);
 2/9=110/2;
 99//99;
 2/9=110/2;
 3/5=1,6=6,11=2,25=1,30=1,71=1,74=-5/1,2,3;
 4/5=5,16=3,69=1/1;
 5/5=2,38=5/2;
 7//1,2,3,16;
 1/18=20,19=15,26=3/3(-5);
 2/9=110/2;
 6/7=2,8=2,9=2,10=2,19=2,28=1/1;
 99/9=1/99;
 -----------
 Lactic acid
 -----------
 Symbolic Z-matrix:
 Charge =  0 Multiplicity = 1
 C                    -0.2617   -0.63697   0.04572 
 H                     0.00945  -0.16553   0.9672 
 O                     0.30114   0.09361  -1.04715 
 H                    -0.03404   0.99314  -1.03716 
 C                    -1.79576  -0.65926  -0.08756 
 H                    -2.2169   -1.20591   0.73019 
 H                    -2.16934   0.34334  -0.07641 
 H                    -2.0669   -1.13069  -1.00904 
 C                     0.27598  -2.07996   0.02968 
 O                     1.32957  -2.36583   0.65562 
 O                    -0.422    -3.09504  -0.69651 
 H                     0.2035   -3.75373  -1.00712 
 
 The following ModRedundant input section has been read:
 D       5       1       9      11 S  18 10.000                                
 

 GradGradGradGradGradGradGradGradGradGradGradGradGradGradGradGradGradGrad
 Berny optimization.
 Initialization pass.
                           ----------------------------
                           !    Initial Parameters    !
                           ! (Angstroms and Degrees)  !
 --------------------------                            --------------------------
 ! Name  Definition              Value          Derivative Info.                !
 --------------------------------------------------------------------------------
 ! R1    R(1,2)                  1.07           estimate D2E/DX2                !
 ! R2    R(1,3)                  1.43           estimate D2E/DX2                !
 ! R3    R(1,5)                  1.54           estimate D2E/DX2                !
 ! R4    R(1,9)                  1.54           estimate D2E/DX2                !
 ! R5    R(3,4)                  0.96           estimate D2E/DX2                !
 ! R6    R(5,6)                  1.07           estimate D2E/DX2                !
 ! R7    R(5,7)                  1.07           estimate D2E/DX2                !
 ! R8    R(5,8)                  1.07           estimate D2E/DX2                !
 ! R9    R(9,10)                 1.2584         estimate D2E/DX2                !
 ! R10   R(9,11)                 1.43           estimate D2E/DX2                !
 ! R11   R(11,12)                0.96           estimate D2E/DX2                !
 ! A1    A(2,1,3)              109.4712         estimate D2E/DX2                !
 ! A2    A(2,1,5)              109.4712         estimate D2E/DX2                !
 ! A3    A(2,1,9)              109.4712         estimate D2E/DX2                !
 ! A4    A(3,1,5)              109.4712         estimate D2E/DX2                !
 ! A5    A(3,1,9)              109.4712         estimate D2E/DX2                !
 ! A6    A(5,1,9)              109.4712         estimate D2E/DX2                !
 ! A7    A(1,3,4)              109.4712         estimate D2E/DX2                !
 ! A8    A(1,5,6)              109.4712         estimate D2E/DX2                !
 ! A9    A(1,5,7)              109.4712         estimate D2E/DX2                !
 ! A10   A(1,5,8)              109.4712         estimate D2E/DX2                !
 ! A11   A(6,5,7)              109.4712         estimate D2E/DX2                !
 ! A12   A(6,5,8)              109.4712         estimate D2E/DX2                !
 ! A13   A(7,5,8)              109.4712         estimate D2E/DX2                !
 ! A14   A(1,9,10)             120.0            estimate D2E/DX2                !
 ! A15   A(1,9,11)             120.0            estimate D2E/DX2                !
 ! A16   A(10,9,11)            120.0            estimate D2E/DX2                !
 ! A17   A(9,11,12)            109.4712         estimate D2E/DX2                !
 ! D1    D(2,1,3,4)            -60.0            estimate D2E/DX2                !
 ! D2    D(5,1,3,4)             60.0            estimate D2E/DX2                !
 ! D3    D(9,1,3,4)            180.0            estimate D2E/DX2                !
 ! D4    D(2,1,5,6)            -60.0            estimate D2E/DX2                !
 ! D5    D(2,1,5,7)             60.0            estimate D2E/DX2                !
 ! D6    D(2,1,5,8)           -180.0            estimate D2E/DX2                !
 ! D7    D(3,1,5,6)            180.0            estimate D2E/DX2                !
 ! D8    D(3,1,5,7)            -60.0            estimate D2E/DX2                !
 ! D9    D(3,1,5,8)             60.0            estimate D2E/DX2                !
 ! D10   D(9,1,5,6)             60.0            estimate D2E/DX2                !
 ! D11   D(9,1,5,7)            180.0            estimate D2E/DX2                !
 ! D12   D(9,1,5,8)            -60.0            estimate D2E/DX2                !
 ! D13   D(2,1,9,10)           -30.0            estimate D2E/DX2                !
 ! D14   D(2,1,9,11)           150.0            estimate D2E/DX2                !
 ! D15   D(3,1,9,10)            90.0            estimate D2E/DX2                !
 ! D16   D(3,1,9,11)           -90.0            estimate D2E/DX2                !
 ! D17   D(5,1,9,10)          -150.0            estimate D2E/DX2                !
 ! D18   D(5,1,9,11)            30.0            Scan                            !
 ! D19   D(1,9,11,12)          150.0            estimate D2E/DX2                !
 ! D20   D(10,9,11,12)         -30.0            estimate D2E/DX2                !
 --------------------------------------------------------------------------------
 Trust Radius=3.00D-01 FncErr=1.00D-07 GrdErr=1.00D-06 EigMax=2.50D+02 EigMin=1.00D-04
 Number of optimizations in scan=  19
 Number of steps in this run=     58 maximum allowed number of steps=    100.
 GradGradGradGradGradGradGradGradGradGradGradGradGradGradGradGradGradGrad

                          Input orientation:                          
 ---------------------------------------------------------------------
 Center     Atomic      Atomic             Coordinates (Angstroms)
 Number     Number       Type             X           Y           Z
 ---------------------------------------------------------------------
      1          6           0       -0.261698   -0.636966    0.045717
      2          1           0        0.009445   -0.165533    0.967200
      3          8           0        0.301143    0.093612   -1.047154
      4          1           0       -0.034036    0.993143   -1.037157
      5          6           0       -1.795758   -0.659258   -0.087556
      6          1           0       -2.216904   -1.205914    0.730187
      7          1           0       -2.169342    0.343344   -0.076413
      8          1           0       -2.066901   -1.130691   -1.009039
      9          6           0        0.275985   -2.079964    0.029680
     10          8           0        1.329573   -2.365834    0.655618
     11          8           0       -0.421999   -3.095037   -0.696506
     12          1           0        0.203495   -3.753727   -1.007124
 ---------------------------------------------------------------------
                    Distance matrix (angstroms):
                    1          2          3          4          5
     1  C    0.000000
     2  H    1.070000   0.000000
     3  O    1.430000   2.051796   0.000000
     4  H    1.970203   2.315570   0.960000   0.000000
     5  C    1.540000   2.148263   2.425826   2.595348   0.000000
     6  H    2.148263   2.468846   3.344887   3.567109   1.070000
     7  H    2.148263   2.468846   2.666083   2.429979   1.070000
     8  H    2.148263   3.024610   2.666083   2.940068   1.070000
     9  C    1.540000   2.148263   2.425826   3.267757   2.514809
    10  O    2.427572   2.584792   3.163223   4.000955   3.637638
    11  O    2.572683   3.396477   3.288368   4.120651   2.862001
    12  H    3.322510   4.100091   3.848786   4.752903   3.797151
                    6          7          8          9         10
     6  H    0.000000
     7  H    1.747303   0.000000
     8  H    1.747303   1.747303   0.000000
     9  C    2.732978   3.444314   2.732978   0.000000
    10  O    3.732088   4.485301   3.979032   1.258400   0.000000
    11  O    2.970845   3.906429   2.581091   1.430000   2.329803
    12  H    3.920195   4.825202   3.469152   1.970203   2.441108
                   11         12
    11  O    0.000000
    12  H    0.960000   0.000000
 Stoichiometry    C3H6O3
 Framework group  C1[X(C3H6O3)]
 Deg. of freedom    30
 Full point group                 C1      NOp   1
 Largest Abelian subgroup         C1      NOp   1
 Largest concise Abelian subgroup C1      NOp   1
                         Standard orientation:                         
 ---------------------------------------------------------------------
 Center     Atomic      Atomic             Coordinates (Angstroms)
 Number     Number       Type             X           Y           Z
 ---------------------------------------------------------------------
      1          6           0       -0.697132   -0.296807   -0.341172
      2          1           0       -0.847969   -0.844544   -1.247887
      3          8           0       -1.247690   -1.030281    0.756007
      4          1           0       -2.188053   -1.161032    0.613800
      5          6           0       -1.395629    1.071674   -0.445881
      6          1           0       -0.983673    1.620497   -1.266847
      7          1           0       -2.443741    0.925941   -0.604383
      8          1           0       -1.244792    1.619411    0.460834
      9          6           0        0.811366   -0.087060   -0.113048
     10          8           0        1.636314   -0.936030   -0.539992
     11          8           0        1.274673    1.072443    0.583945
     12          1           0        2.090235    0.863831    1.045399
 ---------------------------------------------------------------------
 Rotational constants (GHZ):           4.9797281           2.8484689           2.2730629
 Standard basis: 6-31G (6D, 7F)
 There are    66 symmetry adapted cartesian basis functions of A   symmetry.
 There are    66 symmetry adapted basis functions of A   symmetry.
    66 basis functions,   156 primitive gaussians,    66 cartesian basis functions
    24 alpha electrons       24 beta electrons
       nuclear repulsion energy       243.7622807887 Hartrees.
 NAtoms=   12 NActive=   12 NUniq=   12 SFac= 1.00D+00 NAtFMM=   60 NAOKFM=F Big=F
 Integral buffers will be    131072 words long.
 Raffenetti 2 integral format.
 Two-electron integral symmetry is turned on.
 One-electron integrals computed using PRISM.
 NBasis=    66 RedAO= T EigKep=  4.95D-03  NBF=    66
 NBsUse=    66 1.00D-06 EigRej= -1.00D+00 NBFU=    66
 ExpMin= 1.61D-01 ExpMax= 5.48D+03 ExpMxC= 8.25D+02 IAcc=3 IRadAn=         5 AccDes= 0.00D+00
 Harris functional with IExCor=  402 and IRadAn=       5 diagonalized for initial guess.
 HarFok:  IExCor=  402 AccDes= 0.00D+00 IRadAn=         5 IDoV= 1 UseB2=F ITyADJ=14
 ICtDFT=  3500011 ScaDFX=  1.000000  1.000000  1.000000  1.000000
 FoFCou: FMM=F IPFlag=           0 FMFlag=      100000 FMFlg1=           0
         NFxFlg=           0 DoJE=T BraDBF=F KetDBF=T FulRan=T
         wScrn=  0.000000 ICntrl=       500 IOpCl=  0 I1Cent=   200000004 NGrid=           0
         NMat0=    1 NMatS0=      1 NMatT0=    0 NMatD0=    1 NMtDS0=    0 NMtDT0=    0
 Petite list used in FoFCou.
 Keep R1 ints in memory in canonical form, NReq=9561834.
 Requested convergence on RMS density matrix=1.00D-08 within 128 cycles.
 Requested convergence on MAX density matrix=1.00D-06.
 Requested convergence on             energy=1.00D-06.
 No special actions if energy rises.
 Integral accuracy reduced to 1.0D-05 until final iterations.
 Initial convergence to 1.0D-05 achieved.  Increase integral accuracy.
 SCF Done:  E(RB3LYP) =  -343.467038167     A.U. after   14 cycles
            NFock= 14  Conv=0.90D-08     -V/T= 2.0054

 **********************************************************************

            Population analysis using the SCF Density.

 **********************************************************************

 Orbital symmetries:
       Occupied  (A) (A) (A) (A) (A) (A) (A) (A) (A) (A) (A) (A)
                 (A) (A) (A) (A) (A) (A) (A) (A) (A) (A) (A) (A)
       Virtual   (A) (A) (A) (A) (A) (A) (A) (A) (A) (A) (A) (A)
                 (A) (A) (A) (A) (A) (A) (A) (A) (A) (A) (A) (A)
                 (A) (A) (A) (A) (A) (A) (A) (A) (A) (A) (A) (A)
                 (A) (A) (A) (A) (A) (A)
 The electronic state is 1-A.
 Alpha  occ. eigenvalues --  -19.19673 -19.16055 -19.15498 -10.34416 -10.26698
 Alpha  occ. eigenvalues --  -10.17891  -1.10409  -1.04838  -1.02433  -0.78849
 Alpha  occ. eigenvalues --   -0.68143  -0.61850  -0.53879  -0.50529  -0.47750
 Alpha  occ. eigenvalues --   -0.44722  -0.42754  -0.42318  -0.39725  -0.37856
 Alpha  occ. eigenvalues --   -0.34248  -0.32211  -0.28702  -0.27649
 Alpha virt. eigenvalues --   -0.04312   0.05172   0.07221   0.12812   0.15092
 Alpha virt. eigenvalues --    0.15244   0.16587   0.18143   0.20709   0.22674
 Alpha virt. eigenvalues --    0.28438   0.32224   0.53593   0.54223   0.56467
 Alpha virt. eigenvalues --    0.57606   0.61098   0.63433   0.64303   0.70084
 Alpha virt. eigenvalues --    0.76594   0.81255   0.83208   0.84050   0.90654
 Alpha virt. eigenvalues --    0.92229   0.93404   0.94820   0.96493   0.97859
 Alpha virt. eigenvalues --    1.00360   1.03241   1.06574   1.10468   1.12378
 Alpha virt. eigenvalues --    1.16368   1.28607   1.39324   1.53751   1.64169
 Alpha virt. eigenvalues --    1.82951   1.93627
          Condensed to atoms (all electrons):
               1          2          3          4          5          6
     1  C    5.207545   0.372022   0.224621  -0.031429   0.235669  -0.024612
     2  H    0.372022   0.622273  -0.046522  -0.004596  -0.062511   0.002292
     3  O    0.224621  -0.046522   8.278332   0.243527  -0.066027   0.004590
     4  H   -0.031429  -0.004596   0.243527   0.417817  -0.005092  -0.000088
     5  C    0.235669  -0.062511  -0.066027  -0.005092   5.272974   0.338517
     6  H   -0.024612   0.002292   0.004590  -0.000088   0.338517   0.583807
     7  H   -0.027332  -0.004610  -0.001886   0.005420   0.356814  -0.029107
     8  H   -0.027478   0.005740   0.002511  -0.000648   0.370597  -0.023330
     9  C    0.179453  -0.049500  -0.048620   0.007071  -0.034068  -0.001152
    10  O   -0.092733   0.001246   0.001024  -0.000166   0.003763   0.000002
    11  O   -0.095310   0.002687   0.001299  -0.000129   0.003565   0.000271
    12  H    0.007651  -0.000142  -0.000267   0.000022  -0.000468  -0.000015
               7          8          9         10         11         12
     1  C   -0.027332  -0.027478   0.179453  -0.092733  -0.095310   0.007651
     2  H   -0.004610   0.005740  -0.049500   0.001246   0.002687  -0.000142
     3  O   -0.001886   0.002511  -0.048620   0.001024   0.001299  -0.000267
     4  H    0.005420  -0.000648   0.007071  -0.000166  -0.000129   0.000022
     5  C    0.356814   0.370597  -0.034068   0.003763   0.003565  -0.000468
     6  H   -0.029107  -0.023330  -0.001152   0.000002   0.000271  -0.000015
     7  H    0.600201  -0.030706   0.004969  -0.000095   0.000057   0.000006
     8  H   -0.030706   0.523471  -0.010612   0.000088   0.006733  -0.000180
     9  C    0.004969  -0.010612   4.808340   0.466775   0.171643  -0.013006
    10  O   -0.000095   0.000088   0.466775   8.118543  -0.100961   0.003965
    11  O    0.000057   0.006733   0.171643  -0.100961   8.342345   0.232278
    12  H    0.000006  -0.000180  -0.013006   0.003965   0.232278   0.377372
 Mulliken charges:
               1
     1  C    0.071934
     2  H    0.161620
     3  O   -0.592582
     4  H    0.368292
     5  C   -0.413732
     6  H    0.148826
     7  H    0.126268
     8  H    0.183813
     9  C    0.518707
    10  O   -0.401450
    11  O   -0.564480
    12  H    0.392784
 Sum of Mulliken charges =  -0.00000
 Mulliken charges with hydrogens summed into heavy atoms:
               1
     1  C    0.233554
     3  O   -0.224290
     5  C    0.045175
     9  C    0.518707
    10  O   -0.401450
    11  O   -0.171696
 Electronic spatial extent (au):  <R**2>=            583.1634
 Charge=             -0.0000 electrons
 Dipole moment (field-independent basis, Debye):
    X=             -2.2211    Y=              1.2486    Z=             -0.1711  Tot=              2.5538
 Quadrupole moment (field-independent basis, Debye-Ang):
   XX=            -28.7599   YY=            -39.7051   ZZ=            -35.3903
   XY=              4.6924   XZ=              5.2301   YZ=              0.2816
 Traceless Quadrupole moment (field-independent basis, Debye-Ang):
   XX=              5.8586   YY=             -5.0867   ZZ=             -0.7719
   XY=              4.6924   XZ=              5.2301   YZ=              0.2816
 Octapole moment (field-independent basis, Debye-Ang**2):
  XXX=             -6.4487  YYY=             -2.6184  ZZZ=              3.1671  XYY=             -4.9299
  XXY=              1.0865  XXZ=             13.6928  XZZ=              5.5377  YZZ=              2.0837
  YYZ=              0.4762  XYZ=             -0.8180
 Hexadecapole moment (field-independent basis, Debye-Ang**3):
 XXXX=           -325.4210 YYYY=           -215.7991 ZZZZ=            -98.7704 XXXY=             48.1064
 XXXZ=             13.6466 YYYX=             10.5007 YYYZ=              1.4580 ZZZX=              4.3636
 ZZZY=              4.2525 XXYY=            -94.5761 XXZZ=            -72.2925 YYZZ=            -51.0946
 XXYZ=              0.7689 YYXZ=              2.0798 ZZXY=              6.3581
 N-N= 2.437622807887D+02 E-N=-1.293572077021D+03  KE= 3.416248619006D+02
 Calling FoFJK, ICntrl=      2127 FMM=F ISym2X=0 I1Cent= 0 IOpClX= 0 NMat=1 NMatS=1 NMatT=0.
 ***** Axes restored to original set *****
 -------------------------------------------------------------------
 Center     Atomic                   Forces (Hartrees/Bohr)
 Number     Number              X              Y              Z
 -------------------------------------------------------------------
      1        6          -0.038992109   -0.023003115   -0.013479308
      2        1           0.009486305   -0.000799997    0.017971638
      3        8           0.019479143   -0.015987148   -0.014445226
      4        1          -0.005376862    0.015679461   -0.000297668
      5        6           0.019691342   -0.000739055    0.003798959
      6        1          -0.010700167   -0.007895718    0.012326333
      7        1          -0.007972155    0.016568049    0.001402445
      8        1          -0.004311273   -0.007192988   -0.012777969
      9        6           0.041180630   -0.016098069    0.014667636
     10        8          -0.030382902    0.004998789   -0.021314809
     11        8          -0.004845116    0.051861280    0.011073210
     12        1           0.012743164   -0.017391490    0.001074759
 -------------------------------------------------------------------
 Cartesian Forces:  Max     0.051861280 RMS     0.018213810

 GradGradGradGradGradGradGradGradGradGradGradGradGradGradGradGradGradGrad
 Berny optimization.
 FormGI is forming the generalized inverse of G from B-inverse, IUseBI=4.
 Internal  Forces:  Max     0.037175689 RMS     0.011944848
 Search for a local minimum.
 Step number   1 out of a maximum of   58 on scan point     1 out of    19
 All quantities printed in internal units (Hartrees-Bohrs-Radians)
 Mixed Optimization -- RFO/linear search
 Second derivative matrix not updated -- first step.
 ITU=  0
     Eigenvalues ---    0.00237   0.00387   0.01295   0.01295   0.04016
     Eigenvalues ---    0.05340   0.05720   0.05720   0.07482   0.15755
     Eigenvalues ---    0.16000   0.16000   0.16000   0.16000   0.16000
     Eigenvalues ---    0.19636   0.25000   0.25000   0.28519   0.28519
     Eigenvalues ---    0.37230   0.37230   0.37230   0.37230   0.40989
     Eigenvalues ---    0.40989   0.55473   0.55473   0.802091000.00000
     Eigenvalues --- 1000.000001000.000001000.000001000.000001000.00000
     Eigenvalues --- 1000.000001000.000001000.000001000.000001000.00000
     Eigenvalues --- 1000.000001000.000001000.000001000.000001000.00000
     Eigenvalues --- 1000.000001000.000001000.00000
 RFO step:  Lambda=-2.16789021D-02 EMin= 2.36824112D-03
 Linear search not attempted -- first point.
 Iteration  1 RMS(Cart)=  0.06288824 RMS(Int)=  0.00561061
 Iteration  2 RMS(Cart)=  0.00697690 RMS(Int)=  0.00099387
 Iteration  3 RMS(Cart)=  0.00008332 RMS(Int)=  0.00099105
 Iteration  4 RMS(Cart)=  0.00000001 RMS(Int)=  0.00099105
 Iteration  1 RMS(Cart)=  0.00002268 RMS(Int)=  0.00001631
 Iteration  2 RMS(Cart)=  0.00001305 RMS(Int)=  0.00001819
 Iteration  3 RMS(Cart)=  0.00000751 RMS(Int)=  0.00002067
 Iteration  4 RMS(Cart)=  0.00000432 RMS(Int)=  0.00002241
 Iteration  5 RMS(Cart)=  0.00000249 RMS(Int)=  0.00002349
 Iteration  6 RMS(Cart)=  0.00000143 RMS(Int)=  0.00002414
 Iteration  7 RMS(Cart)=  0.00000082 RMS(Int)=  0.00002451
 Variable       Old X    -DE/DX   Delta X   Delta X   Delta X     New X
                                 (Linear)    (Quad)   (Total)
    R1        2.02201   0.01753   0.00000   0.04449   0.04449   2.06650
    R2        2.70231   0.01666   0.00000   0.03860   0.03860   2.74091
    R3        2.91018   0.00286   0.00000   0.00931   0.00931   2.91949
    R4        2.91018  -0.01543   0.00000  -0.05028  -0.05028   2.85990
    R5        1.81414   0.01657   0.00000   0.02874   0.02874   1.84288
    R6        2.02201   0.01767   0.00000   0.04484   0.04484   2.06685
    R7        2.02201   0.01832   0.00000   0.04651   0.04651   2.06851
    R8        2.02201   0.01527   0.00000   0.03875   0.03875   2.06076
    R9        2.37803  -0.03718   0.00000  -0.04513  -0.04513   2.33290
   R10        2.70231  -0.03449   0.00000  -0.07992  -0.07992   2.62239
   R11        1.81414   0.01989   0.00000   0.03450   0.03450   1.84864
    A1        1.91063   0.00411   0.00000   0.02789   0.02353   1.93416
    A2        1.91063  -0.00165   0.00000   0.02200   0.02195   1.93258
    A3        1.91063  -0.00618   0.00000  -0.06672  -0.06762   1.84302
    A4        1.91063   0.00575   0.00000   0.04226   0.04281   1.95344
    A5        1.91063  -0.01365   0.00000  -0.07681  -0.07820   1.83243
    A6        1.91063   0.01162   0.00000   0.05138   0.05248   1.96312
    A7        1.91063   0.00115   0.00000   0.00635   0.00635   1.91698
    A8        1.91063   0.00535   0.00000   0.02958   0.02949   1.94013
    A9        1.91063   0.00125   0.00000   0.00645   0.00638   1.91702
   A10        1.91063  -0.00047   0.00000  -0.00234  -0.00236   1.90827
   A11        1.91063  -0.00339   0.00000  -0.01919  -0.01931   1.89132
   A12        1.91063  -0.00229   0.00000  -0.01180  -0.01185   1.89879
   A13        1.91063  -0.00044   0.00000  -0.00269  -0.00268   1.90795
   A14        2.09440   0.01794   0.00000   0.06603   0.06579   2.16018
   A15        2.09440  -0.02622   0.00000  -0.09650  -0.09673   1.99767
   A16        2.09440   0.00828   0.00000   0.03047   0.03025   2.12465
   A17        1.91063  -0.00202   0.00000  -0.01112  -0.01112   1.89951
    D1       -1.04720  -0.00576   0.00000  -0.05916  -0.06023  -1.10743
    D2        1.04720  -0.00175   0.00000   0.01074   0.01205   1.05924
    D3        3.14159   0.00765   0.00000   0.05251   0.05228  -3.08931
    D4       -1.04720   0.00305   0.00000   0.03600   0.03590  -1.01130
    D5        1.04720   0.00294   0.00000   0.03456   0.03452   1.08172
    D6       -3.14159   0.00288   0.00000   0.03378   0.03369  -3.10790
    D7        3.14159  -0.00449   0.00000  -0.03751  -0.03726   3.10433
    D8       -1.04720  -0.00461   0.00000  -0.03895  -0.03864  -1.08584
    D9        1.04720  -0.00467   0.00000  -0.03974  -0.03947   1.00773
   D10        1.04720   0.00159   0.00000  -0.00078  -0.00100   1.04619
   D11        3.14159   0.00147   0.00000  -0.00222  -0.00238   3.13921
   D12       -1.04720   0.00141   0.00000  -0.00300  -0.00322  -1.05041
   D13       -0.52360   0.00373   0.00000   0.05666   0.05453  -0.46907
   D14        2.61799   0.00321   0.00000   0.01755   0.01530   2.63330
   D15        1.57080  -0.00337   0.00000   0.00292   0.00528   1.57608
   D16       -1.57080  -0.00390   0.00000  -0.03618  -0.03395  -1.60474
   D17       -2.61799   0.00242   0.00000   0.03910   0.03923  -2.57877
   D18        0.52360   0.00190   0.00000   0.00000  -0.00000   0.52360
   D19        2.61799   0.00738   0.00000   0.22504   0.22466   2.84265
   D20       -0.52360   0.00685   0.00000   0.18593   0.18631  -0.33728
         Item               Value     Threshold  Converged?
 Maximum Force            0.037176     0.000450     NO 
 RMS     Force            0.012064     0.000300     NO 
 Maximum Displacement     0.245758     0.001800     NO 
 RMS     Displacement     0.064859     0.001200     NO 
 Predicted change in Energy=-1.252855D-02
 GradGradGradGradGradGradGradGradGradGradGradGradGradGradGradGradGradGrad

                          Input orientation:                          
 ---------------------------------------------------------------------
 Center     Atomic      Atomic             Coordinates (Angstroms)
 Number     Number       Type             X           Y           Z
 ---------------------------------------------------------------------
      1          6           0       -0.281349   -0.654183    0.043547
      2          1           0        0.024360   -0.222315    1.000558
      3          8           0        0.339953    0.050062   -1.061788
      4          1           0        0.033829    0.975831   -1.078232
      5          6           0       -1.821222   -0.676516   -0.079309
      6          1           0       -2.274479   -1.242278    0.739661
      7          1           0       -2.211108    0.345866   -0.049385
      8          1           0       -2.101287   -1.141867   -1.024938
      9          6           0        0.321804   -2.041838    0.012120
     10          8           0        1.345356   -2.359216    0.625021
     11          8           0       -0.399206   -2.964987   -0.731972
     12          1           0        0.176352   -3.731382   -0.927831
 ---------------------------------------------------------------------
                    Distance matrix (angstroms):
                    1          2          3          4          5
     1  C    0.000000
     2  H    1.093544   0.000000
     3  O    1.450428   2.104058   0.000000
     4  H    2.003665   2.399378   0.975208   0.000000
     5  C    1.544928   2.185998   2.482712   2.677557   0.000000
     6  H    2.191574   2.528448   3.427917   3.681444   1.093728
     7  H    2.175478   2.534270   2.760502   2.548553   1.094610
     8  H    2.166027   3.076782   2.716929   3.007691   1.090505
     9  C    1.513395   2.091924   2.351521   3.221509   2.542641
    10  O    2.427224   2.540158   3.108179   3.967835   3.654419
    11  O    2.440314   3.271592   3.121802   3.979631   2.772219
    12  H    3.259174   4.006911   3.787351   4.711771   3.747332
                    6          7          8          9         10
     6  H    0.000000
     7  H    1.774488   0.000000
     8  H    1.775919   1.782446   0.000000
     9  C    2.812347   3.481458   2.785104   0.000000
    10  O    3.789973   4.518929   4.010443   1.234519   0.000000
    11  O    2.941102   3.835447   2.511310   1.387707   2.291699
    12  H    3.870755   4.805786   3.450023   1.938872   2.379235
                   11         12
    11  O    0.000000
    12  H    0.978258   0.000000
 Stoichiometry    C3H6O3
 Framework group  C1[X(C3H6O3)]
 Deg. of freedom    30
 Full point group                 C1      NOp   1
 Largest Abelian subgroup         C1      NOp   1
 Largest concise Abelian subgroup C1      NOp   1
                         Standard orientation:                         
 ---------------------------------------------------------------------
 Center     Atomic      Atomic             Coordinates (Angstroms)
 Number     Number       Type             X           Y           Z
 ---------------------------------------------------------------------
      1          6           0       -0.662339   -0.291230   -0.364209
      2          1           0       -0.718271   -0.818166   -1.320790
      3          8           0       -1.100571   -1.146720    0.721992
      4          1           0       -2.039878   -1.379560    0.601501
      5          6           0       -1.464345    1.028085   -0.418949
      6          1           0       -1.099040    1.679338   -1.218113
      7          1           0       -2.521246    0.812832   -0.605489
      8          1           0       -1.365190    1.550681    0.533029
      9          6           0        0.812100   -0.062009   -0.111520
     10          8           0        1.706053   -0.783690   -0.563251
     11          8           0        1.097136    1.068926    0.640459
     12          1           0        2.010185    0.997668    0.984338
 ---------------------------------------------------------------------
 Rotational constants (GHZ):           4.9919902           2.9539967           2.3563019
 Standard basis: 6-31G (6D, 7F)
 There are    66 symmetry adapted cartesian basis functions of A   symmetry.
 There are    66 symmetry adapted basis functions of A   symmetry.
    66 basis functions,   156 primitive gaussians,    66 cartesian basis functions
    24 alpha electrons       24 beta electrons
       nuclear repulsion energy       245.9138032743 Hartrees.
 NAtoms=   12 NActive=   12 NUniq=   12 SFac= 1.00D+00 NAtFMM=   60 NAOKFM=F Big=F
 Integral buffers will be    131072 words long.
 Raffenetti 2 integral format.
 Two-electron integral symmetry is turned on.
 One-electron integrals computed using PRISM.
 NBasis=    66 RedAO= T EigKep=  4.87D-03  NBF=    66
 NBsUse=    66 1.00D-06 EigRej= -1.00D+00 NBFU=    66
 Initial guess from the checkpoint file:  "lactic_acid.chk"
 B after Tr=    -0.000000   -0.000000   -0.000000
         Rot=    0.999019   -0.023561    0.002322   -0.037429 Ang=  -5.08 deg.
 ExpMin= 1.61D-01 ExpMax= 5.48D+03 ExpMxC= 8.25D+02 IAcc=3 IRadAn=         5 AccDes= 0.00D+00
 Harris functional with IExCor=  402 and IRadAn=       5 diagonalized for initial guess.
 HarFok:  IExCor=  402 AccDes= 0.00D+00 IRadAn=         5 IDoV= 1 UseB2=F ITyADJ=14
 ICtDFT=  3500011 ScaDFX=  1.000000  1.000000  1.000000  1.000000
 FoFCou: FMM=F IPFlag=           0 FMFlag=      100000 FMFlg1=           0
         NFxFlg=           0 DoJE=T BraDBF=F KetDBF=T FulRan=T
         wScrn=  0.000000 ICntrl=       500 IOpCl=  0 I1Cent=   200000004 NGrid=           0
         NMat0=    1 NMatS0=      1 NMatT0=    0 NMatD0=    1 NMtDS0=    0 NMtDT0=    0
 Petite list used in FoFCou.
 Keep R1 ints in memory in canonical form, NReq=9561834.
 Requested convergence on RMS density matrix=1.00D-08 within 128 cycles.
 Requested convergence on MAX density matrix=1.00D-06.
 Requested convergence on             energy=1.00D-06.
 No special actions if energy rises.
 Integral accuracy reduced to 1.0D-05 until final iterations.
 Initial convergence to 1.0D-05 achieved.  Increase integral accuracy.
 SCF Done:  E(RB3LYP) =  -343.480232291     A.U. after   13 cycles
            NFock= 13  Conv=0.95D-08     -V/T= 2.0055
 Calling FoFJK, ICntrl=      2127 FMM=F ISym2X=0 I1Cent= 0 IOpClX= 0 NMat=1 NMatS=1 NMatT=0.
 ***** Axes restored to original set *****
 -------------------------------------------------------------------
 Center     Atomic                   Forces (Hartrees/Bohr)
 Number     Number              X              Y              Z
 -------------------------------------------------------------------
      1        6          -0.016854673   -0.005124687    0.001652832
      2        1           0.001125207    0.002182271    0.001496932
      3        8           0.002871159   -0.001467636   -0.004147164
      4        1          -0.000863285    0.002663007    0.000167161
      5        6           0.008753516    0.001907988   -0.000277104
      6        1          -0.000196314   -0.000171096    0.000603321
      7        1          -0.000670066    0.001098471    0.000469031
      8        1          -0.000729677   -0.000216765   -0.000440509
      9        6           0.003899456   -0.008299486    0.007353556
     10        8          -0.001769255    0.001325011   -0.005740895
     11        8           0.005715126    0.012463032   -0.004398468
     12        1          -0.001281194   -0.006360108    0.003261307
 -------------------------------------------------------------------
 Cartesian Forces:  Max     0.016854673 RMS     0.004933721

 GradGradGradGradGradGradGradGradGradGradGradGradGradGradGradGradGradGrad
 Berny optimization.
 Using GEDIIS/GDIIS optimizer.
 FormGI is forming the generalized inverse of G from B-inverse, IUseBI=4.
 Internal  Forces:  Max     0.007199792 RMS     0.002639576
 Search for a local minimum.
 Step number   2 out of a maximum of   58 on scan point     1 out of    19
 All quantities printed in internal units (Hartrees-Bohrs-Radians)
 Mixed Optimization -- RFO/linear search
 Update second derivatives using D2CorX and points    1    2
 DE= -1.32D-02 DEPred=-1.25D-02 R= 1.05D+00
 TightC=F SS=  1.41D+00  RLast= 4.00D-01 DXNew= 5.0454D-01 1.2015D+00
 Trust test= 1.05D+00 RLast= 4.00D-01 DXMaxT set to 5.05D-01
 ITU=  1  0
 Use linear search instead of GDIIS.
     Eigenvalues ---    0.00237   0.00389   0.01250   0.01295   0.03856
     Eigenvalues ---    0.05150   0.05526   0.05673   0.08257   0.15764
     Eigenvalues ---    0.16000   0.16000   0.16000   0.16040   0.16525
     Eigenvalues ---    0.18522   0.23843   0.24989   0.28372   0.29947
     Eigenvalues ---    0.37048   0.37230   0.37230   0.37850   0.39715
     Eigenvalues ---    0.41083   0.54845   0.55474   0.793061000.00000
     Eigenvalues --- 1000.000001000.000001000.000001000.000001000.00000
     Eigenvalues --- 1000.000001000.000001000.000001000.000001000.00000
     Eigenvalues --- 1000.000001000.000001000.000001000.000001000.00000
     Eigenvalues --- 1000.000001000.000001000.00000
 RFO step:  Lambda=-4.07901645D-03 EMin= 2.36818837D-03
 Quartic linear search produced a step of  0.22430.
 Iteration  1 RMS(Cart)=  0.04552139 RMS(Int)=  0.02519783
 Iteration  2 RMS(Cart)=  0.02015456 RMS(Int)=  0.00152081
 Iteration  3 RMS(Cart)=  0.00140321 RMS(Int)=  0.00080637
 Iteration  4 RMS(Cart)=  0.00000388 RMS(Int)=  0.00080636
 Iteration  5 RMS(Cart)=  0.00000000 RMS(Int)=  0.00080636
 Iteration  1 RMS(Cart)=  0.00003081 RMS(Int)=  0.00002243
 Iteration  2 RMS(Cart)=  0.00001772 RMS(Int)=  0.00002503
 Iteration  3 RMS(Cart)=  0.00001019 RMS(Int)=  0.00002843
 Iteration  4 RMS(Cart)=  0.00000586 RMS(Int)=  0.00003082
 Iteration  5 RMS(Cart)=  0.00000337 RMS(Int)=  0.00003230
 Iteration  6 RMS(Cart)=  0.00000194 RMS(Int)=  0.00003319
 Iteration  7 RMS(Cart)=  0.00000111 RMS(Int)=  0.00003371
 Iteration  8 RMS(Cart)=  0.00000064 RMS(Int)=  0.00003401
 Variable       Old X    -DE/DX   Delta X   Delta X   Delta X     New X
                                 (Linear)    (Quad)   (Total)
    R1        2.06650   0.00249   0.00998   0.00279   0.01276   2.07926
    R2        2.74091   0.00447   0.00866   0.00858   0.01724   2.75815
    R3        2.91949  -0.00720   0.00209  -0.03105  -0.02896   2.89053
    R4        2.85990   0.00341  -0.01128   0.02024   0.00896   2.86886
    R5        1.84288   0.00280   0.00645   0.00284   0.00929   1.85217
    R6        2.06685   0.00062   0.01006  -0.00321   0.00685   2.07369
    R7        2.06851   0.00128   0.01043  -0.00131   0.00912   2.07763
    R8        2.06076   0.00066   0.00869  -0.00238   0.00631   2.06707
    R9        2.33290  -0.00466  -0.01012  -0.00212  -0.01224   2.32066
   R10        2.62239  -0.00575  -0.01793  -0.00757  -0.02550   2.59689
   R11        1.84864   0.00358   0.00774   0.00388   0.01162   1.86026
    A1        1.93416   0.00060   0.00528  -0.01598  -0.01167   1.92250
    A2        1.93258  -0.00116   0.00492   0.00419   0.00847   1.94105
    A3        1.84302  -0.00051  -0.01517   0.02404   0.00798   1.85100
    A4        1.95344  -0.00073   0.00960  -0.02362  -0.01349   1.93995
    A5        1.83243  -0.00270  -0.01754  -0.01167  -0.02929   1.80314
    A6        1.96312   0.00453   0.01177   0.02483   0.03650   1.99961
    A7        1.91698  -0.00030   0.00142  -0.00307  -0.00165   1.91534
    A8        1.94013  -0.00039   0.00662  -0.00829  -0.00170   1.93843
    A9        1.91702   0.00014   0.00143  -0.00023   0.00117   1.91819
   A10        1.90827   0.00094  -0.00053   0.00902   0.00847   1.91675
   A11        1.89132  -0.00022  -0.00433  -0.00243  -0.00679   1.88453
   A12        1.89879  -0.00022  -0.00266   0.00080  -0.00187   1.89692
   A13        1.90795  -0.00027  -0.00060   0.00114   0.00052   1.90847
   A14        2.16018   0.00360   0.01476   0.01047   0.02220   2.18238
   A15        1.99767  -0.00522  -0.02170  -0.01112  -0.03582   1.96185
   A16        2.12465   0.00170   0.00679   0.00587   0.00966   2.13431
   A17        1.89951   0.00389  -0.00249   0.03006   0.02756   1.92708
    D1       -1.10743   0.00003  -0.01351   0.01781   0.00414  -1.10329
    D2        1.05924  -0.00157   0.00270  -0.00592  -0.00307   1.05618
    D3       -3.08931   0.00179   0.01173   0.00335   0.01509  -3.07423
    D4       -1.01130  -0.00058   0.00805  -0.03240  -0.02447  -1.03577
    D5        1.08172  -0.00102   0.00774  -0.04088  -0.03326   1.04846
    D6       -3.10790  -0.00068   0.00756  -0.03404  -0.02661  -3.13451
    D7        3.10433   0.00004  -0.00836   0.00255  -0.00578   3.09856
    D8       -1.08584  -0.00040  -0.00867  -0.00593  -0.01456  -1.10040
    D9        1.00773  -0.00006  -0.00885   0.00091  -0.00791   0.99982
   D10        1.04619   0.00092  -0.00023   0.01678   0.01664   1.06284
   D11        3.13921   0.00049  -0.00053   0.00830   0.00786  -3.13612
   D12       -1.05041   0.00082  -0.00072   0.01514   0.01451  -1.03590
   D13       -0.46907   0.00009   0.01223  -0.11468  -0.10288  -0.57195
   D14        2.63330   0.00231   0.00343   0.03495   0.03819   2.67148
   D15        1.57608  -0.00068   0.00119  -0.12731  -0.12556   1.45052
   D16       -1.60474   0.00153  -0.00761   0.02233   0.01551  -1.58924
   D17       -2.57877  -0.00075   0.00880  -0.14963  -0.14107  -2.71984
   D18        0.52360   0.00146  -0.00000   0.00000   0.00000   0.52360
   D19        2.84265   0.00410   0.05039   0.19823   0.24903   3.09168
   D20       -0.33728   0.00632   0.04179   0.34461   0.38599   0.04871
         Item               Value     Threshold  Converged?
 Maximum Force            0.007200     0.000450     NO 
 RMS     Force            0.002647     0.000300     NO 
 Maximum Displacement     0.206142     0.001800     NO 
 RMS     Displacement     0.061195     0.001200     NO 
 Predicted change in Energy=-3.233628D-03
 GradGradGradGradGradGradGradGradGradGradGradGradGradGradGradGradGradGrad

                          Input orientation:                          
 ---------------------------------------------------------------------
 Center     Atomic      Atomic             Coordinates (Angstroms)
 Number     Number       Type             X           Y           Z
 ---------------------------------------------------------------------
      1          6           0       -0.301808   -0.669479    0.065148
      2          1           0       -0.002371   -0.227062    1.027053
      3          8           0        0.338948    0.041769   -1.036597
      4          1           0        0.031810    0.972382   -1.053017
      5          6           0       -1.823313   -0.674690   -0.091938
      6          1           0       -2.300997   -1.246849    0.713437
      7          1           0       -2.207380    0.354658   -0.050765
      8          1           0       -2.095653   -1.125003   -1.050869
      9          6           0        0.342547   -2.043212    0.016153
     10          8           0        1.425128   -2.332560    0.518527
     11          8           0       -0.360197   -2.923619   -0.770932
     12          1           0        0.106292   -3.789160   -0.818746
 ---------------------------------------------------------------------
                    Distance matrix (angstroms):
                    1          2          3          4          5
     1  C    0.000000
     2  H    1.100299   0.000000
     3  O    1.459549   2.108890   0.000000
     4  H    2.014274   2.401358   0.980124   0.000000
     5  C    1.529601   2.183653   2.465982   2.660451   0.000000
     6  H    2.179539   2.534167   3.419425   3.672511   1.097350
     7  H    2.166448   2.522331   2.748373   2.529835   1.099437
     8  H    2.161221   3.083162   2.699786   2.987495   1.093846
     9  C    1.518136   2.106962   2.335689   3.214574   2.564271
    10  O    2.440021   2.594123   3.039019   3.915830   3.697779
    11  O    2.404908   3.260706   3.058252   3.925820   2.767566
    12  H    3.268062   4.013394   3.844166   4.767884   3.735178
                    6          7          8          9         10
     6  H    0.000000
     7  H    1.776962   0.000000
     8  H    1.780390   1.789438   0.000000
     9  C    2.847582   3.500913   2.815398   0.000000
    10  O    3.885971   4.554158   4.039443   1.228041   0.000000
    11  O    2.963379   3.831165   2.514993   1.374215   2.280228
    12  H    3.821776   4.807713   3.464127   1.949668   2.376828
                   11         12
    11  O    0.000000
    12  H    0.984409   0.000000
 Stoichiometry    C3H6O3
 Framework group  C1[X(C3H6O3)]
 Deg. of freedom    30
 Full point group                 C1      NOp   1
 Largest Abelian subgroup         C1      NOp   1
 Largest concise Abelian subgroup C1      NOp   1
                         Standard orientation:                         
 ---------------------------------------------------------------------
 Center     Atomic      Atomic             Coordinates (Angstroms)
 Number     Number       Type             X           Y           Z
 ---------------------------------------------------------------------
      1          6           0       -0.655151   -0.282420   -0.384268
      2          1           0       -0.723445   -0.815227   -1.344533
      3          8           0       -1.013956   -1.175550    0.712938
      4          1           0       -1.948141   -1.456790    0.618892
      5          6           0       -1.530616    0.971869   -0.383749
      6          1           0       -1.231000    1.662288   -1.182328
      7          1           0       -2.581372    0.694991   -0.551118
      8          1           0       -1.440196    1.486909    0.577009
      9          6           0        0.822372   -0.021023   -0.153324
     10          8           0        1.734169   -0.759391   -0.515987
     11          8           0        1.042208    1.086783    0.629558
     12          1           0        2.005157    1.202543    0.798050
 ---------------------------------------------------------------------
 Rotational constants (GHZ):           5.0777131           2.9888046           2.3620147
 Standard basis: 6-31G (6D, 7F)
 There are    66 symmetry adapted cartesian basis functions of A   symmetry.
 There are    66 symmetry adapted basis functions of A   symmetry.
    66 basis functions,   156 primitive gaussians,    66 cartesian basis functions
    24 alpha electrons       24 beta electrons
       nuclear repulsion energy       246.6522595358 Hartrees.
 NAtoms=   12 NActive=   12 NUniq=   12 SFac= 1.00D+00 NAtFMM=   60 NAOKFM=F Big=F
 Integral buffers will be    131072 words long.
 Raffenetti 2 integral format.
 Two-electron integral symmetry is turned on.
 One-electron integrals computed using PRISM.
 NBasis=    66 RedAO= T EigKep=  4.88D-03  NBF=    66
 NBsUse=    66 1.00D-06 EigRej= -1.00D+00 NBFU=    66
 Initial guess from the checkpoint file:  "lactic_acid.chk"
 B after Tr=     0.000000    0.000000    0.000000
         Rot=    0.999796    0.001529   -0.004571   -0.019616 Ang=   2.31 deg.
 ExpMin= 1.61D-01 ExpMax= 5.48D+03 ExpMxC= 8.25D+02 IAcc=3 IRadAn=         5 AccDes= 0.00D+00
 Harris functional with IExCor=  402 and IRadAn=       5 diagonalized for initial guess.
 HarFok:  IExCor=  402 AccDes= 0.00D+00 IRadAn=         5 IDoV= 1 UseB2=F ITyADJ=14
 ICtDFT=  3500011 ScaDFX=  1.000000  1.000000  1.000000  1.000000
 FoFCou: FMM=F IPFlag=           0 FMFlag=      100000 FMFlg1=           0
         NFxFlg=           0 DoJE=T BraDBF=F KetDBF=T FulRan=T
         wScrn=  0.000000 ICntrl=       500 IOpCl=  0 I1Cent=   200000004 NGrid=           0
         NMat0=    1 NMatS0=      1 NMatT0=    0 NMatD0=    1 NMtDS0=    0 NMtDT0=    0
 Petite list used in FoFCou.
 Keep R1 ints in memory in canonical form, NReq=9561834.
 Requested convergence on RMS density matrix=1.00D-08 within 128 cycles.
 Requested convergence on MAX density matrix=1.00D-06.
 Requested convergence on             energy=1.00D-06.
 No special actions if energy rises.
 Integral accuracy reduced to 1.0D-05 until final iterations.
 Initial convergence to 1.0D-05 achieved.  Increase integral accuracy.
 SCF Done:  E(RB3LYP) =  -343.481896751     A.U. after   13 cycles
            NFock= 13  Conv=0.33D-08     -V/T= 2.0055
 Calling FoFJK, ICntrl=      2127 FMM=F ISym2X=0 I1Cent= 0 IOpClX= 0 NMat=1 NMatS=1 NMatT=0.
 ***** Axes restored to original set *****
 -------------------------------------------------------------------
 Center     Atomic                   Forces (Hartrees/Bohr)
 Number     Number              X              Y              Z
 -------------------------------------------------------------------
      1        6          -0.004226195    0.000947278    0.003551297
      2        1          -0.000648368   -0.000173913   -0.001371876
      3        8           0.001393116    0.002193376   -0.002326081
      4        1           0.000316332   -0.001270863    0.000584873
      5        6           0.001033538   -0.000071297    0.001542727
      6        1           0.000075254    0.000735224   -0.001107734
      7        1           0.000509396   -0.001727646    0.000008287
      8        1           0.000145203    0.000827039    0.001494413
      9        6           0.002409771    0.002259617   -0.009871048
     10        8           0.001549232   -0.001419262    0.006439549
     11        8          -0.002450813   -0.004604676    0.001672163
     12        1          -0.000106465    0.002305123   -0.000616570
 -------------------------------------------------------------------
 Cartesian Forces:  Max     0.009871048 RMS     0.002631406

 GradGradGradGradGradGradGradGradGradGradGradGradGradGradGradGradGradGrad
 Berny optimization.
 Using GEDIIS/GDIIS optimizer.
 FormGI is forming the generalized inverse of G from B-inverse, IUseBI=4.
 Internal  Forces:  Max     0.004334642 RMS     0.001415819
 Search for a local minimum.
 Step number   3 out of a maximum of   58 on scan point     1 out of    19
 All quantities printed in internal units (Hartrees-Bohrs-Radians)
 Mixed Optimization -- RFO/linear search
 Update second derivatives using D2CorX and points    2    3
 DE= -1.66D-03 DEPred=-3.23D-03 R= 5.15D-01
 TightC=F SS=  1.41D+00  RLast= 5.20D-01 DXNew= 8.4853D-01 1.5602D+00
 Trust test= 5.15D-01 RLast= 5.20D-01 DXMaxT set to 8.49D-01
 ITU=  1  1  0
 Use linear search instead of GDIIS.
     Eigenvalues ---    0.00237   0.00483   0.01293   0.01885   0.04024
     Eigenvalues ---    0.05080   0.05523   0.05618   0.08567   0.15337
     Eigenvalues ---    0.16000   0.16000   0.16018   0.16087   0.16870
     Eigenvalues ---    0.17879   0.23638   0.24966   0.28209   0.29279
     Eigenvalues ---    0.37096   0.37230   0.37237   0.37991   0.39462
     Eigenvalues ---    0.41288   0.55051   0.55476   0.798651000.00000
     Eigenvalues --- 1000.000001000.000001000.000001000.000001000.00000
     Eigenvalues --- 1000.000001000.000001000.000001000.000001000.00000
     Eigenvalues --- 1000.000001000.000001000.000001000.000001000.00000
     Eigenvalues --- 1000.000001000.000001000.00000
 RFO step:  Lambda=-1.81056222D-03 EMin= 2.36670877D-03
 Quartic linear search produced a step of -0.26652.
 Iteration  1 RMS(Cart)=  0.05283755 RMS(Int)=  0.01719398
 Iteration  2 RMS(Cart)=  0.01629647 RMS(Int)=  0.00253576
 Iteration  3 RMS(Cart)=  0.00042094 RMS(Int)=  0.00250308
 Iteration  4 RMS(Cart)=  0.00000075 RMS(Int)=  0.00250308
 Iteration  1 RMS(Cart)=  0.00007756 RMS(Int)=  0.00005641
 Iteration  2 RMS(Cart)=  0.00004462 RMS(Int)=  0.00006292
 Iteration  3 RMS(Cart)=  0.00002567 RMS(Int)=  0.00007149
 Iteration  4 RMS(Cart)=  0.00001477 RMS(Int)=  0.00007750
 Iteration  5 RMS(Cart)=  0.00000850 RMS(Int)=  0.00008124
 Iteration  6 RMS(Cart)=  0.00000489 RMS(Int)=  0.00008346
 Iteration  7 RMS(Cart)=  0.00000281 RMS(Int)=  0.00008476
 Iteration  8 RMS(Cart)=  0.00000162 RMS(Int)=  0.00008552
 Iteration  9 RMS(Cart)=  0.00000093 RMS(Int)=  0.00008596
 Variable       Old X    -DE/DX   Delta X   Delta X   Delta X     New X
                                 (Linear)    (Quad)   (Total)
    R1        2.07926  -0.00145  -0.00340   0.00140  -0.00200   2.07726
    R2        2.75815   0.00251  -0.00459   0.01221   0.00762   2.76577
    R3        2.89053  -0.00195   0.00772  -0.02497  -0.01725   2.87328
    R4        2.86886   0.00199  -0.00239   0.01568   0.01329   2.88215
    R5        1.85217  -0.00132  -0.00248   0.00166  -0.00082   1.85135
    R6        2.07369  -0.00123  -0.00182  -0.00211  -0.00393   2.06976
    R7        2.07763  -0.00180  -0.00243  -0.00188  -0.00431   2.07333
    R8        2.06707  -0.00169  -0.00168  -0.00278  -0.00447   2.06260
    R9        2.32066   0.00433   0.00326   0.00020   0.00347   2.32413
   R10        2.59689   0.00218   0.00680  -0.00541   0.00139   2.59828
   R11        1.86026  -0.00205  -0.00310   0.00169  -0.00141   1.85885
    A1        1.92250  -0.00021   0.00311  -0.01053  -0.00745   1.91505
    A2        1.94105  -0.00085  -0.00226  -0.00680  -0.00878   1.93227
    A3        1.85100   0.00021  -0.00213   0.00771   0.00578   1.85678
    A4        1.93995   0.00111   0.00360  -0.00286   0.00040   1.94035
    A5        1.80314  -0.00044   0.00781  -0.00900  -0.00128   1.80187
    A6        1.99961   0.00016  -0.00973   0.02111   0.01149   2.01110
    A7        1.91534  -0.00094   0.00044  -0.00592  -0.00548   1.90986
    A8        1.93843   0.00068   0.00045  -0.00042   0.00003   1.93846
    A9        1.91819  -0.00004  -0.00031  -0.00033  -0.00063   1.91755
   A10        1.91675   0.00028  -0.00226   0.00718   0.00493   1.92167
   A11        1.88453  -0.00035   0.00181  -0.00451  -0.00270   1.88183
   A12        1.89692  -0.00040   0.00050  -0.00131  -0.00082   1.89610
   A13        1.90847  -0.00020  -0.00014  -0.00085  -0.00098   1.90749
   A14        2.18238  -0.00185  -0.00592   0.01043  -0.00542   2.17697
   A15        1.96185   0.00152   0.00955  -0.00270  -0.00312   1.95872
   A16        2.13431   0.00066  -0.00258   0.01338   0.00069   2.13500
   A17        1.92708  -0.00071  -0.00735   0.01599   0.00865   1.93573
    D1       -1.10329   0.00028  -0.00110   0.01724   0.01610  -1.08719
    D2        1.05618  -0.00018   0.00082  -0.00094  -0.00003   1.05615
    D3       -3.07423   0.00035  -0.00402   0.01727   0.01320  -3.06103
    D4       -1.03577   0.00006   0.00652  -0.02432  -0.01780  -1.05357
    D5        1.04846   0.00004   0.00887  -0.03041  -0.02154   1.02692
    D6       -3.13451  -0.00006   0.00709  -0.02713  -0.02004   3.12864
    D7        3.09856   0.00015   0.00154  -0.00384  -0.00233   3.09623
    D8       -1.10040   0.00012   0.00388  -0.00993  -0.00607  -1.10648
    D9        0.99982   0.00002   0.00211  -0.00665  -0.00457   0.99524
   D10        1.06284  -0.00019  -0.00444  -0.00424  -0.00865   1.05419
   D11       -3.13612  -0.00021  -0.00209  -0.01033  -0.01239   3.13467
   D12       -1.03590  -0.00031  -0.00387  -0.00705  -0.01089  -1.04680
   D13       -0.57195   0.00218   0.02742   0.24184   0.26881  -0.30314
   D14        2.67148  -0.00156  -0.01018   0.01052   0.00053   2.67202
   D15        1.45052   0.00184   0.03347   0.22928   0.26227   1.71278
   D16       -1.58924  -0.00190  -0.00413  -0.00204  -0.00601  -1.59525
   D17       -2.71984   0.00301   0.03760   0.23132   0.26829  -2.45155
   D18        0.52360  -0.00074  -0.00000   0.00000   0.00001   0.52360
   D19        3.09168   0.00071  -0.06637   0.27173   0.20541  -2.98610
   D20        0.04871  -0.00275  -0.10288   0.04788  -0.05505  -0.00634
         Item               Value     Threshold  Converged?
 Maximum Force            0.004335     0.000450     NO 
 RMS     Force            0.001421     0.000300     NO 
 Maximum Displacement     0.228255     0.001800     NO 
 RMS     Displacement     0.064724     0.001200     NO 
 Predicted change in Energy=-1.429197D-03
 GradGradGradGradGradGradGradGradGradGradGradGradGradGradGradGradGradGrad

                          Input orientation:                          
 ---------------------------------------------------------------------
 Center     Atomic      Atomic             Coordinates (Angstroms)
 Number     Number       Type             X           Y           Z
 ---------------------------------------------------------------------
      1          6           0       -0.290336   -0.663011    0.034699
      2          1           0        0.016493   -0.223041    0.994185
      3          8           0        0.318586    0.082516   -1.067784
      4          1           0       -0.002722    1.007887   -1.052059
      5          6           0       -1.805772   -0.683711   -0.087238
      6          1           0       -2.256978   -1.280412    0.712746
      7          1           0       -2.200194    0.337032   -0.008056
      8          1           0       -2.099034   -1.110064   -1.048256
      9          6           0        0.387287   -2.026782   -0.049556
     10          8           0        1.343800   -2.377689    0.639314
     11          8           0       -0.315418   -2.909014   -0.835915
     12          1           0        0.057293   -3.816535   -0.764626
 ---------------------------------------------------------------------
                    Distance matrix (angstroms):
                    1          2          3          4          5
     1  C    0.000000
     2  H    1.099241   0.000000
     3  O    1.463580   2.106262   0.000000
     4  H    2.013868   2.388025   0.979692   0.000000
     5  C    1.520475   2.168489   2.462006   2.653935   0.000000
     6  H    2.169934   2.523076   3.414878   3.665040   1.095269
     7  H    2.156264   2.496372   2.744458   2.523662   1.097157
     8  H    2.155003   3.071454   2.695832   2.979975   1.091483
     9  C    1.525170   2.116687   2.343213   3.219679   2.571919
    10  O    2.444601   2.555422   3.165100   4.016962   3.649280
    11  O    2.408968   3.267091   3.066754   3.935303   2.780943
    12  H    3.271770   4.001035   3.919539   4.833350   3.707352
                    6          7          8          9         10
     6  H    0.000000
     7  H    1.771696   0.000000
     8  H    1.776258   1.785031   0.000000
     9  C    2.851370   3.504910   2.831883   0.000000
    10  O    3.764971   4.510952   4.038300   1.229875   0.000000
    11  O    2.969907   3.843767   2.542163   1.374950   2.282895
    12  H    3.737700   4.787564   3.472057   1.955361   2.386718
                   11         12
    11  O    0.000000
    12  H    0.983662   0.000000
 Stoichiometry    C3H6O3
 Framework group  C1[X(C3H6O3)]
 Deg. of freedom    30
 Full point group                 C1      NOp   1
 Largest Abelian subgroup         C1      NOp   1
 Largest concise Abelian subgroup C1      NOp   1
                         Standard orientation:                         
 ---------------------------------------------------------------------
 Center     Atomic      Atomic             Coordinates (Angstroms)
 Number     Number       Type             X           Y           Z
 ---------------------------------------------------------------------
      1          6           0       -0.656378   -0.274334   -0.370270
      2          1           0       -0.716328   -0.827401   -1.318348
      3          8           0       -1.123516   -1.122833    0.726953
      4          1           0       -2.063821   -1.355914    0.581021
      5          6           0       -1.459237    1.014554   -0.447927
      6          1           0       -1.078687    1.668291   -1.240027
      7          1           0       -2.508262    0.787279   -0.675189
      8          1           0       -1.403712    1.548959    0.502159
      9          6           0        0.828135   -0.098262   -0.068007
     10          8           0        1.731353   -0.751153   -0.588125
     11          8           0        1.074139    1.015979    0.699091
     12          1           0        2.039893    1.191089    0.764252
 ---------------------------------------------------------------------
 Rotational constants (GHZ):           5.0789170           2.8959727           2.3770033
 Standard basis: 6-31G (6D, 7F)
 There are    66 symmetry adapted cartesian basis functions of A   symmetry.
 There are    66 symmetry adapted basis functions of A   symmetry.
    66 basis functions,   156 primitive gaussians,    66 cartesian basis functions
    24 alpha electrons       24 beta electrons
       nuclear repulsion energy       246.1002606482 Hartrees.
 NAtoms=   12 NActive=   12 NUniq=   12 SFac= 1.00D+00 NAtFMM=   60 NAOKFM=F Big=F
 Integral buffers will be    131072 words long.
 Raffenetti 2 integral format.
 Two-electron integral symmetry is turned on.
 One-electron integrals computed using PRISM.
 NBasis=    66 RedAO= T EigKep=  4.90D-03  NBF=    66
 NBsUse=    66 1.00D-06 EigRej= -1.00D+00 NBFU=    66
 Initial guess from the checkpoint file:  "lactic_acid.chk"
 B after Tr=    -0.000000   -0.000000   -0.000000
         Rot=    0.999777   -0.002535    0.009123    0.018885 Ang=  -2.42 deg.
 ExpMin= 1.61D-01 ExpMax= 5.48D+03 ExpMxC= 8.25D+02 IAcc=3 IRadAn=         5 AccDes= 0.00D+00
 Harris functional with IExCor=  402 and IRadAn=       5 diagonalized for initial guess.
 HarFok:  IExCor=  402 AccDes= 0.00D+00 IRadAn=         5 IDoV= 1 UseB2=F ITyADJ=14
 ICtDFT=  3500011 ScaDFX=  1.000000  1.000000  1.000000  1.000000
 FoFCou: FMM=F IPFlag=           0 FMFlag=      100000 FMFlg1=           0
         NFxFlg=           0 DoJE=T BraDBF=F KetDBF=T FulRan=T
         wScrn=  0.000000 ICntrl=       500 IOpCl=  0 I1Cent=   200000004 NGrid=           0
         NMat0=    1 NMatS0=      1 NMatT0=    0 NMatD0=    1 NMtDS0=    0 NMtDT0=    0
 Petite list used in FoFCou.
 Keep R1 ints in memory in canonical form, NReq=9561834.
 Requested convergence on RMS density matrix=1.00D-08 within 128 cycles.
 Requested convergence on MAX density matrix=1.00D-06.
 Requested convergence on             energy=1.00D-06.
 No special actions if energy rises.
 Integral accuracy reduced to 1.0D-05 until final iterations.
 Initial convergence to 1.0D-05 achieved.  Increase integral accuracy.
 SCF Done:  E(RB3LYP) =  -343.480649356     A.U. after   14 cycles
            NFock= 14  Conv=0.56D-08     -V/T= 2.0055
 Calling FoFJK, ICntrl=      2127 FMM=F ISym2X=0 I1Cent= 0 IOpClX= 0 NMat=1 NMatS=1 NMatT=0.
 ***** Axes restored to original set *****
 -------------------------------------------------------------------
 Center     Atomic                   Forces (Hartrees/Bohr)
 Number     Number              X              Y              Z
 -------------------------------------------------------------------
      1        6           0.008690107    0.003661988   -0.005651317
      2        1           0.000876093   -0.002055437   -0.000629934
      3        8          -0.000217786    0.003500101   -0.001802158
      4        1           0.000549200   -0.000394972   -0.000332816
      5        6          -0.001611023   -0.002515378    0.000638338
      6        1          -0.000677882   -0.000036739   -0.000038211
      7        1           0.000281582   -0.000150967    0.000030793
      8        1          -0.000250989    0.000073715    0.000010703
      9        6          -0.016526097   -0.004754451    0.017148622
     10        8           0.005968756    0.001642147   -0.003423886
     11        8           0.000752739   -0.001399716   -0.003996232
     12        1           0.002165298    0.002429709   -0.001953902
 -------------------------------------------------------------------
 Cartesian Forces:  Max     0.017148622 RMS     0.004787356

 GradGradGradGradGradGradGradGradGradGradGradGradGradGradGradGradGradGrad
 Berny optimization.
 Using GEDIIS/GDIIS optimizer.
 FormGI is forming the generalized inverse of G from B-inverse, IUseBI=4.
 Internal  Forces:  Max     0.007036441 RMS     0.002250974
 Search for a local minimum.
 Step number   4 out of a maximum of   58 on scan point     1 out of    19
 All quantities printed in internal units (Hartrees-Bohrs-Radians)
 Mixed Optimization -- RFO/linear search
 Update second derivatives using D2CorX and points    2    4    3
 DE=  1.25D-03 DEPred=-1.43D-03 R=-8.73D-01
 Trust test=-8.73D-01 RLast= 5.11D-01 DXMaxT set to 4.24D-01
 ITU= -1  1  1  0
 Use linear search instead of GDIIS.
     Eigenvalues ---    0.00237   0.01292   0.01559   0.02079   0.04187
     Eigenvalues ---    0.05150   0.05510   0.05600   0.08691   0.15574
     Eigenvalues ---    0.15957   0.16000   0.16012   0.16151   0.17094
     Eigenvalues ---    0.18310   0.23524   0.24714   0.28176   0.29225
     Eigenvalues ---    0.37005   0.37218   0.37230   0.37677   0.39563
     Eigenvalues ---    0.40654   0.54721   0.55474   0.789401000.00000
     Eigenvalues --- 1000.000001000.000001000.000001000.000001000.00000
     Eigenvalues --- 1000.000001000.000001000.000001000.000001000.00000
     Eigenvalues --- 1000.000001000.000001000.000001000.000001000.00000
     Eigenvalues --- 1000.000001000.000001000.00000
 RFO step:  Lambda=-5.18374251D-04 EMin= 2.36557507D-03
 Quartic linear search produced a step of -0.67656.
 Iteration  1 RMS(Cart)=  0.04705482 RMS(Int)=  0.00663497
 Iteration  2 RMS(Cart)=  0.00774800 RMS(Int)=  0.00083040
 Iteration  3 RMS(Cart)=  0.00009614 RMS(Int)=  0.00082472
 Iteration  4 RMS(Cart)=  0.00000002 RMS(Int)=  0.00082472
 Iteration  1 RMS(Cart)=  0.00003157 RMS(Int)=  0.00002304
 Iteration  2 RMS(Cart)=  0.00001817 RMS(Int)=  0.00002570
 Iteration  3 RMS(Cart)=  0.00001046 RMS(Int)=  0.00002920
 Iteration  4 RMS(Cart)=  0.00000602 RMS(Int)=  0.00003166
 Iteration  5 RMS(Cart)=  0.00000347 RMS(Int)=  0.00003319
 Iteration  6 RMS(Cart)=  0.00000199 RMS(Int)=  0.00003410
 Iteration  7 RMS(Cart)=  0.00000115 RMS(Int)=  0.00003463
 Iteration  8 RMS(Cart)=  0.00000066 RMS(Int)=  0.00003494
 Variable       Old X    -DE/DX   Delta X   Delta X   Delta X     New X
                                 (Linear)    (Quad)   (Total)
    R1        2.07726  -0.00113   0.00135  -0.00497  -0.00361   2.07365
    R2        2.76577   0.00333  -0.00515   0.00531   0.00016   2.76592
    R3        2.87328   0.00224   0.01167  -0.00040   0.01126   2.88455
    R4        2.88215  -0.00196  -0.00899   0.00248  -0.00651   2.87564
    R5        1.85135  -0.00056   0.00055  -0.00293  -0.00237   1.84898
    R6        2.06976   0.00027   0.00266  -0.00297  -0.00031   2.06945
    R7        2.07333  -0.00024   0.00291  -0.00463  -0.00171   2.07161
    R8        2.06260   0.00003   0.00302  -0.00393  -0.00091   2.06170
    R9        2.32413   0.00226  -0.00235   0.00605   0.00370   2.32783
   R10        2.59828   0.00125  -0.00094   0.00720   0.00626   2.60454
   R11        1.85885  -0.00156   0.00095  -0.00465  -0.00369   1.85516
    A1        1.91505  -0.00051   0.00504   0.00096   0.00601   1.92106
    A2        1.93227   0.00159   0.00594  -0.00102   0.00473   1.93700
    A3        1.85678  -0.00082  -0.00391  -0.00644  -0.01041   1.84637
    A4        1.94035  -0.00003  -0.00027   0.00545   0.00531   1.94566
    A5        1.80187   0.00319   0.00086   0.00862   0.00954   1.81141
    A6        2.01110  -0.00337  -0.00777  -0.00725  -0.01507   1.99603
    A7        1.90986   0.00091   0.00371  -0.00214   0.00157   1.91143
    A8        1.93846   0.00095  -0.00002   0.00529   0.00527   1.94373
    A9        1.91755  -0.00055   0.00043  -0.00199  -0.00157   1.91599
   A10        1.92167   0.00027  -0.00333   0.00138  -0.00195   1.91972
   A11        1.88183  -0.00021   0.00182  -0.00166   0.00017   1.88200
   A12        1.89610  -0.00046   0.00055  -0.00131  -0.00076   1.89535
   A13        1.90749  -0.00001   0.00066  -0.00185  -0.00120   1.90629
   A14        2.17697  -0.00052   0.00366  -0.00962  -0.00268   2.17428
   A15        1.95872   0.00232   0.00211   0.00849   0.01387   1.97260
   A16        2.13500  -0.00049  -0.00047  -0.00150   0.00130   2.13630
   A17        1.93573  -0.00197  -0.00585  -0.00870  -0.01455   1.92117
    D1       -1.08719  -0.00034  -0.01089   0.00728  -0.00358  -1.09078
    D2        1.05615   0.00131   0.00002   0.01034   0.01032   1.06647
    D3       -3.06103  -0.00076  -0.00893   0.01000   0.00109  -3.05994
    D4       -1.05357   0.00096   0.01204  -0.00593   0.00614  -1.04743
    D5        1.02692   0.00094   0.01457  -0.00594   0.00866   1.03558
    D6        3.12864   0.00075   0.01356  -0.00863   0.00496   3.13359
    D7        3.09623   0.00052   0.00158  -0.01021  -0.00864   3.08758
    D8       -1.10648   0.00050   0.00411  -0.01023  -0.00612  -1.11260
    D9        0.99524   0.00031   0.00309  -0.01292  -0.00983   0.98542
   D10        1.05419  -0.00131   0.00585  -0.02044  -0.01461   1.03958
   D11        3.13467  -0.00133   0.00839  -0.02045  -0.01209   3.12258
   D12       -1.04680  -0.00153   0.00737  -0.02314  -0.01579  -1.06259
   D13       -0.30314  -0.00430  -0.18187   0.00635  -0.17533  -0.47846
   D14        2.67202   0.00430  -0.00036  -0.01095  -0.01129   2.66073
   D15        1.71278  -0.00380  -0.17744   0.00862  -0.16868   1.54410
   D16       -1.59525   0.00481   0.00407  -0.00868  -0.00464  -1.59989
   D17       -2.45155  -0.00352  -0.18151   0.01729  -0.16405  -2.61560
   D18        0.52360   0.00509  -0.00000   0.00000  -0.00001   0.52360
   D19       -2.98610  -0.00704  -0.13897  -0.09446  -0.23394   3.06315
   D20       -0.00634   0.00132   0.03724  -0.11220  -0.07445  -0.08079
         Item               Value     Threshold  Converged?
 Maximum Force            0.005579     0.000450     NO 
 RMS     Force            0.001969     0.000300     NO 
 Maximum Displacement     0.131642     0.001800     NO 
 RMS     Displacement     0.049594     0.001200     NO 
 Predicted change in Energy=-6.196325D-04
 GradGradGradGradGradGradGradGradGradGradGradGradGradGradGradGradGradGrad

                          Input orientation:                          
 ---------------------------------------------------------------------
 Center     Atomic      Atomic             Coordinates (Angstroms)
 Number     Number       Type             X           Y           Z
 ---------------------------------------------------------------------
      1          6           0       -0.298897   -0.664520    0.047969
      2          1           0        0.007414   -0.225589    1.005906
      3          8           0        0.332469    0.055304   -1.059071
      4          1           0        0.029789    0.985746   -1.058878
      5          6           0       -1.819308   -0.675126   -0.087106
      6          1           0       -2.286797   -1.260134    0.711942
      7          1           0       -2.204592    0.349162   -0.022656
      8          1           0       -2.105463   -1.106777   -1.047357
      9          6           0        0.345323   -2.042282   -0.001039
     10          8           0        1.387549   -2.347764    0.580222
     11          8           0       -0.361438   -2.940691   -0.771078
     12          1           0        0.126955   -3.790153   -0.831399
 ---------------------------------------------------------------------
                    Distance matrix (angstroms):
                    1          2          3          4          5
     1  C    0.000000
     2  H    1.097328   0.000000
     3  O    1.463662   2.109192   0.000000
     4  H    2.014081   2.393985   0.978436   0.000000
     5  C    1.526436   2.175701   2.471515   2.668706   0.000000
     6  H    2.178844   2.533792   3.424532   3.680536   1.095106
     7  H    2.159679   2.506242   2.756300   2.543905   1.096250
     8  H    2.158474   3.075164   2.700755   2.989663   1.091004
     9  C    1.521725   2.104398   2.349354   3.222970   2.561669
    10  O    2.441455   2.567022   3.094384   3.955053   3.677903
    11  O    2.419856   3.265808   3.088759   3.956361   2.779566
    12  H    3.274785   4.011994   3.857669   4.782301   3.747706
                    6          7          8          9         10
     6  H    0.000000
     7  H    1.770939   0.000000
     8  H    1.775256   1.783143   0.000000
     9  C    2.836926   3.495931   2.824235   0.000000
    10  O    3.834202   4.532146   4.048480   1.231835   0.000000
    11  O    2.954764   3.844540   2.545819   1.378264   2.288347
    12  H    3.822185   4.819140   3.497262   1.947367   2.379549
                   11         12
    11  O    0.000000
    12  H    0.981709   0.000000
 Stoichiometry    C3H6O3
 Framework group  C1[X(C3H6O3)]
 Deg. of freedom    30
 Full point group                 C1      NOp   1
 Largest Abelian subgroup         C1      NOp   1
 Largest concise Abelian subgroup C1      NOp   1
                         Standard orientation:                         
 ---------------------------------------------------------------------
 Center     Atomic      Atomic             Coordinates (Angstroms)
 Number     Number       Type             X           Y           Z
 ---------------------------------------------------------------------
      1          6           0       -0.660210   -0.276783   -0.373984
      2          1           0       -0.721209   -0.812858   -1.329512
      3          8           0       -1.070766   -1.155653    0.722071
      4          1           0       -2.005241   -1.417890    0.598275
      5          6           0       -1.495746    1.000180   -0.409371
      6          1           0       -1.151625    1.680510   -1.195494
      7          1           0       -2.543608    0.752261   -0.615010
      8          1           0       -1.430165    1.515545    0.549997
      9          6           0        0.822982   -0.049695   -0.120567
     10          8           0        1.724077   -0.771850   -0.549447
     11          8           0        1.073724    1.066104    0.648674
     12          1           0        2.033405    1.131408    0.844891
 ---------------------------------------------------------------------
 Rotational constants (GHZ):           5.0404828           2.9458759           2.3550500
 Standard basis: 6-31G (6D, 7F)
 There are    66 symmetry adapted cartesian basis functions of A   symmetry.
 There are    66 symmetry adapted basis functions of A   symmetry.
    66 basis functions,   156 primitive gaussians,    66 cartesian basis functions
    24 alpha electrons       24 beta electrons
       nuclear repulsion energy       246.0052289345 Hartrees.
 NAtoms=   12 NActive=   12 NUniq=   12 SFac= 1.00D+00 NAtFMM=   60 NAOKFM=F Big=F
 Integral buffers will be    131072 words long.
 Raffenetti 2 integral format.
 Two-electron integral symmetry is turned on.
 One-electron integrals computed using PRISM.
 NBasis=    66 RedAO= T EigKep=  4.89D-03  NBF=    66
 NBsUse=    66 1.00D-06 EigRej= -1.00D+00 NBFU=    66
 Lowest energy guess from the checkpoint file:  "lactic_acid.chk"
 B after Tr=    -0.000000   -0.000000   -0.000000
         Rot=    0.999930   -0.001255    0.003292    0.011259 Ang=  -1.35 deg.
 B after Tr=     0.000000    0.000000    0.000000
         Rot=    0.999953    0.001316   -0.005858   -0.007665 Ang=   1.12 deg.
 Keep R1 ints in memory in canonical form, NReq=9561834.
 Requested convergence on RMS density matrix=1.00D-08 within 128 cycles.
 Requested convergence on MAX density matrix=1.00D-06.
 Requested convergence on             energy=1.00D-06.
 No special actions if energy rises.
 Integral accuracy reduced to 1.0D-05 until final iterations.
 Initial convergence to 1.0D-05 achieved.  Increase integral accuracy.
 SCF Done:  E(RB3LYP) =  -343.482429281     A.U. after   12 cycles
            NFock= 12  Conv=0.62D-08     -V/T= 2.0055
 Calling FoFJK, ICntrl=      2127 FMM=F ISym2X=0 I1Cent= 0 IOpClX= 0 NMat=1 NMatS=1 NMatT=0.
 ***** Axes restored to original set *****
 -------------------------------------------------------------------
 Center     Atomic                   Forces (Hartrees/Bohr)
 Number     Number              X              Y              Z
 -------------------------------------------------------------------
      1        6          -0.000937468   -0.001265155   -0.000603458
      2        1           0.000375290    0.000253706   -0.000068074
      3        8           0.000142386   -0.000563563   -0.000655119
      4        1          -0.000070095    0.000338259    0.000303386
      5        6           0.000865683    0.000284563    0.000668563
      6        1           0.000061139   -0.000142943    0.000120859
      7        1          -0.000314509    0.000307847   -0.000056199
      8        1          -0.000194874   -0.000211452   -0.000311078
      9        6          -0.000457587   -0.001128463    0.001992678
     10        8          -0.000950889    0.000295733   -0.001116762
     11        8           0.001604387    0.002460372   -0.000788919
     12        1          -0.000123463   -0.000628904    0.000514122
 -------------------------------------------------------------------
 Cartesian Forces:  Max     0.002460372 RMS     0.000805221

 GradGradGradGradGradGradGradGradGradGradGradGradGradGradGradGradGradGrad
 Berny optimization.
 Using GEDIIS/GDIIS optimizer.
 FormGI is forming the generalized inverse of G from B-inverse, IUseBI=4.
 Internal  Forces:  Max     0.001800686 RMS     0.000503642
 Search for a local minimum.
 Step number   5 out of a maximum of   58 on scan point     1 out of    19
 All quantities printed in internal units (Hartrees-Bohrs-Radians)
 Mixed Optimization -- En-DIIS/RFO-DIIS
 Update second derivatives using D2CorX and points    2    4    3    5
 DE= -5.33D-04 DEPred=-6.20D-04 R= 8.59D-01
 TightC=F SS=  1.41D+00  RLast= 2.24D-01 DXNew= 7.1352D-01 6.7315D-01
 Trust test= 8.59D-01 RLast= 2.24D-01 DXMaxT set to 6.73D-01
 ITU=  1 -1  1  1  0
 Use linear search instead of GDIIS.
     Eigenvalues ---    0.00238   0.01262   0.01867   0.02137   0.04537
     Eigenvalues ---    0.05114   0.05486   0.05621   0.08529   0.15381
     Eigenvalues ---    0.15793   0.16006   0.16016   0.16285   0.17070
     Eigenvalues ---    0.18335   0.23622   0.24868   0.27380   0.29269
     Eigenvalues ---    0.36848   0.37174   0.37231   0.37286   0.38973
     Eigenvalues ---    0.41391   0.54758   0.55468   0.794751000.00000
     Eigenvalues --- 1000.000001000.000001000.000001000.000001000.00000
     Eigenvalues --- 1000.000001000.000001000.000001000.000001000.00000
     Eigenvalues --- 1000.000001000.000001000.000001000.000001000.00000
     Eigenvalues --- 1000.000001000.000001000.00000
 RFO step:  Lambda=-4.64879445D-05 EMin= 2.38327819D-03
[...]
           D1         -70.52618 -69.92030 -68.57473 -66.82011 -65.14397
           D2          52.45124  52.65675  53.65160  55.13419  56.64091
           D3         174.20987 174.45880 175.59522 177.30391 179.05502
           D4         -58.63886 -58.78062 -59.26420 -60.01629 -60.91104
           D5          60.62782  60.58101  60.22268  59.62513  58.90627
           D6        -179.51150-179.65106 179.92574 179.29436 178.56739
           D7         177.88865 177.91680 177.64582 177.13109 176.46885
           D8         -62.84468 -62.72157 -62.86731 -63.22750 -63.71384
           D9          57.01601  57.04636  56.83575  56.44173  55.94729
           D10         57.54589  56.85475  56.04383  55.15905  54.30908
           D11        176.81257 176.21638 175.53070 174.80047 174.12639
           D12        -63.32675 -64.01569 -64.76624 -65.53030 -66.21248
           D13         22.15292  31.44826  40.43219  49.19570  57.91014
           D14       -161.22819-151.93161-142.38734-132.59701-122.58008
           D15        140.70630 150.36974 159.53315 168.28274 176.82994
           D16        -42.67481 -33.01013 -23.28638 -13.50996  -3.66028
           D17        -96.61883 -86.62004 -77.18044 -68.20730 -59.50985
           D18         80.00006  90.00009 100.00003 110.00000 119.99993
           D19       -179.23009-178.83175-178.94196-179.41830 179.93021
           D20         -2.57481  -2.20144  -1.76956  -1.22187  -0.56281
                          11        12        13        14        15
     Eigenvalues --    -0.48277  -0.48290  -0.48311  -0.48338  -0.48368
           R1           1.10268   1.10350   1.10384   1.10346   1.10239
           R2           1.44652   1.44808   1.45037   1.45340   1.45669
           R3           1.53507   1.53288   1.53037   1.52802   1.52587
           R4           1.51686   1.51778   1.51828   1.51873   1.51907
           R5           0.97819   0.97819   0.97814   0.97816   0.97809
           R6           1.09295   1.09272   1.09271   1.09291   1.09343
           R7           1.09600   1.09593   1.09588   1.09586   1.09586
           R8           1.09426   1.09414   1.09391   1.09354   1.09312
           R9           1.23712   1.23680   1.23629   1.23546   1.23442
           R10          1.36557   1.36599   1.36700   1.36820   1.36962
           R11          0.98341   0.98333   0.98316   0.98287   0.98259
           A1         110.29344 110.11321 109.97139 109.87279 109.82162
           A2         109.07098 109.26549 109.55708 109.93779 110.34902
           A3         105.48690 105.59526 105.77149 106.09233 106.48962
           A4         112.09385 112.01352 111.92624 111.81663 111.73898
           A5         109.40852 109.02053 108.42387 107.60181 106.63206
           A6         110.27844 110.63583 111.00290 111.33602 111.61343
           A7         109.32515 109.29223 109.31629 109.34215 109.41724
           A8         110.51305 110.58935 110.75805 110.92946 111.06475
           A9         110.16460 110.19439 110.17642 110.12533 110.07967
           A10        109.93646 109.89191 109.88728 109.90575 109.95726
           A11        108.59053 108.68548 108.70014 108.65185 108.53598
           A12        108.97082 108.78904 108.57547 108.39938 108.27013
           A13        108.62137 108.64486 108.69337 108.77545 108.87650
           A14        122.33786 122.80604 123.41649 124.11893 124.82072
           A15        115.09043 114.68941 114.10794 113.38890 112.63376
           A16        122.56546 122.47195 122.41640 122.42749 122.49926
           A17        109.39053 109.41258 109.49489 109.66936 109.90013
           D1         -63.30906 -61.47087 -59.47560 -57.43165 -55.33333
           D2          58.43170  60.33646  62.54455  64.92988  67.46358
           D3        -178.91150-176.87987-174.68153-172.51199-170.33002
           D4         -61.73230 -62.34082 -62.27744 -61.69715 -60.74478
           D5          58.26820  57.84622  58.02513  58.62254  59.48747
           D6         177.94100 177.53869 177.76337 178.44184 179.43550
           D7         175.82956 175.36732 175.46545 175.97850 176.75932
           D8         -64.16994 -64.44563 -64.23198 -63.70182 -63.00843
           D9          55.50286  55.24683  55.50626  56.11748  56.93960
           D10         53.66726  53.50420  54.16853  55.57673  57.45672
           D11        173.66776 173.69124 174.47110 175.89642 177.68897
           D12        -66.65943 -66.61629 -65.79066 -64.28429 -62.36300
           D13         66.74555  76.07761  86.01191  96.71527 108.05913
           D14       -112.36571-101.89080 -91.24750 -80.41561 -69.51178
           D15       -174.62126-165.63741-156.07251-145.72336-134.71460
           D16          6.26749  16.39418  26.66808  37.14576  47.71448
           D17        -50.88889 -42.03168 -32.74065 -22.86925 -12.42910
           D18        129.99986 139.99992 149.99994 159.99987 169.99999
           D19        179.26927 178.79174 178.71046 179.15586-179.81982
           D20          0.16026   0.81576   1.42023   1.96989   2.54455
                          16        17        18        19
     Eigenvalues --    -0.48393  -0.48406  -0.48403  -0.48389
           R1           1.10086   1.09917   1.09768   1.09669
           R2           1.45998   1.46277   1.46461   1.46498
           R3           1.52422   1.52321   1.52291   1.52404
           R4           1.51933   1.51952   1.51961   1.51964
           R5           0.97808   0.97807   0.97822   0.97860
           R6           1.09411   1.09479   1.09534   1.09563
           R7           1.09583   1.09574   1.09573   1.09591
           R8           1.09274   1.09248   1.09242   1.09259
           R9           1.23336   1.23241   1.23162   1.23110
           R10          1.37115   1.37276   1.37426   1.37539
           R11          0.98235   0.98223   0.98228   0.98252
           A1         109.81108 109.84240 109.92152 110.00336
           A2         110.74438 111.06715 111.28610 111.38621
           A3         106.89924 107.25884 107.57861 107.85838
           A4         111.71118 111.70607 111.72612 111.73661
           A5         105.61108 104.71318 104.04678 103.76955
           A6         111.83449 111.98073 111.97263 111.76599
           A7         109.48077 109.54013 109.52832 109.42296
           A8         111.11123 111.09850 111.07968 111.10098
           A9         110.08163 110.11806 110.18812 110.24740
           A10        109.98098 109.94452 109.86396 109.71768
           A11        108.40241 108.28753 108.16178 108.03594
           A12        108.22302 108.25771 108.34154 108.49304
           A13        108.98414 109.07842 109.15132 109.19445
           A14        125.43140 125.85286 126.03713 125.93468
           A15        111.95256 111.47272 111.25763 111.34658
           A16        122.59635 122.67127 122.70518 122.71828
           A17        110.14901 110.33807 110.43225 110.43155
           D1         -53.43841 -51.40729 -51.51072 -55.35922
           D2          69.83717  72.30083  72.55017  68.89779
           D3        -168.36563-166.29660-166.45990-170.52386
           D4         -59.76581 -58.73348 -57.71992 -57.07390
           D5          60.33057  61.23487  62.12494  62.66611
           D6        -179.57194-178.55096-177.57742-177.03850
           D7         177.48940 178.25224 178.98915 179.44747
           D8         -62.41421 -61.77942 -61.16600 -60.81252
           D9          57.68327  58.43476  59.13164  59.48287
           D10         59.35279  61.15722  62.72487  63.65601
           D11        179.44917-178.87444-177.43028-176.60398
           D12        -60.45334 -58.66026 -57.13264 -56.30859
           D13        119.78089 131.46011 142.66565 153.00451
           D14        -58.63285 -47.90559 -37.42117 -27.23684
           D15       -123.30390-111.85591-100.73788 -90.31712
           D16         58.28235  68.77839  79.17530  89.44153
           D17         -1.58627   9.36567  20.08693  30.24139
           D18       -180.00002-170.00003-159.99988-149.99996
           D19       -178.38666-177.01627-176.20107-176.44753
           D20          3.14747   3.59448   3.71550   3.32021
 GradGradGradGradGradGradGradGradGradGradGradGradGradGradGradGradGradGrad

                          Input orientation:                          
 ---------------------------------------------------------------------
 Center     Atomic      Atomic             Coordinates (Angstroms)
 Number     Number       Type             X           Y           Z
 ---------------------------------------------------------------------
      1          6           0       -0.370620   -0.750560   -0.234725
      2          1           0        0.443855   -0.294054    0.340560
      3          8           0       -0.322740   -0.288853   -1.624222
      4          1           0       -0.343858    0.689338   -1.643013
      5          6           0       -1.725854   -0.474406    0.405411
      6          1           0       -1.753427   -0.832369    1.440545
      7          1           0       -1.929234    0.602434    0.413243
      8          1           0       -2.510643   -0.984102   -0.158563
      9          6           0       -0.089627   -2.240367   -0.338732
     10          8           0       -0.932903   -3.126830   -0.475392
     11          8           0        1.258749   -2.501787   -0.266282
     12          1           0        1.429306   -3.461268   -0.391377
 ---------------------------------------------------------------------
                    Distance matrix (angstroms):
                    1          2          3          4          5
     1  C    0.000000
     2  H    1.096686   0.000000
     3  O    1.464980   2.109043   0.000000
     4  H    2.014273   2.349918   0.978599   0.000000
     5  C    1.524038   2.178157   2.474383   2.731347   0.000000
     6  H    2.173793   2.515512   3.425649   3.716289   1.095628
     7  H    2.163268   2.537819   2.743442   2.597914   1.095905
     8  H    2.154075   3.074792   2.723682   3.114313   1.092589
     9  C    1.519638   2.129361   2.348454   3.216979   2.519842
    10  O    2.453720   3.253592   3.121894   4.034036   2.905157
    11  O    2.392203   2.430308   3.040097   3.827142   3.670055
    12  H    3.257640   3.396777   3.828027   4.683827   4.417154
                    6          7          8          9         10
     6  H    0.000000
     7  H    1.773391   0.000000
     8  H    1.775823   1.783842   0.000000
     9  C    2.813630   3.468593   2.733492   0.000000
    10  O    3.099778   3.961029   2.679725   1.231099   0.000000
    11  O    3.843621   4.501242   4.064885   1.375394   2.288611
    12  H    4.516286   5.332999   4.659802   1.949495   2.387245
                   11         12
    11  O    0.000000
    12  H    0.982518   0.000000
 Stoichiometry    C3H6O3
 Framework group  C1[X(C3H6O3)]
 Deg. of freedom    30
 Full point group                 C1      NOp   1
 Largest Abelian subgroup         C1      NOp   1
 Largest concise Abelian subgroup C1      NOp   1
                         Standard orientation:                         
 ---------------------------------------------------------------------
 Center     Atomic      Atomic             Coordinates (Angstroms)
 Number     Number       Type             X           Y           Z
 ---------------------------------------------------------------------
      1          6           0       -0.639518   -0.260377   -0.361134
      2          1           0       -0.586905   -0.771674   -1.329911
      3          8           0       -0.999570   -1.214809    0.690336
      4          1           0       -1.835139   -1.663916    0.449956
      5          6           0       -1.603491    0.919179   -0.406906
      6          1           0       -1.319103    1.630841   -1.189887
      7          1           0       -2.620395    0.569932   -0.618901
      8          1           0       -1.595326    1.439412    0.553845
      9          6           0        0.767376    0.175812    0.012614
     10          8           0        1.060530    1.130490    0.732512
     11          8           0        1.713597   -0.644079   -0.556731
     12          1           0        2.614208   -0.385091   -0.261489
 ---------------------------------------------------------------------
 Rotational constants (GHZ):           5.0903391           2.8998128           2.3395528

 **********************************************************************

            Population analysis using the SCF Density.

 **********************************************************************

 Orbital symmetries:
       Occupied  (A) (A) (A) (A) (A) (A) (A) (A) (A) (A) (A) (A)
                 (A) (A) (A) (A) (A) (A) (A) (A) (A) (A) (A) (A)
       Virtual   (A) (A) (A) (A) (A) (A) (A) (A) (A) (A) (A) (A)
                 (A) (A) (A) (A) (A) (A) (A) (A) (A) (A) (A) (A)
                 (A) (A) (A) (A) (A) (A) (A) (A) (A) (A) (A) (A)
                 (A) (A) (A) (A) (A) (A)
 The electronic state is 1-A.
 Alpha  occ. eigenvalues --  -19.20130 -19.15621 -19.15407 -10.33701 -10.26216
 Alpha  occ. eigenvalues --  -10.18456  -1.12205  -1.03585  -1.02955  -0.78554
 Alpha  occ. eigenvalues --   -0.69253  -0.59989  -0.53367  -0.50805  -0.47610
 Alpha  occ. eigenvalues --   -0.44311  -0.43075  -0.41246  -0.39203  -0.38069
 Alpha  occ. eigenvalues --   -0.34259  -0.32383  -0.28401  -0.28167
 Alpha virt. eigenvalues --   -0.02543   0.06152   0.06683   0.12315   0.14084
 Alpha virt. eigenvalues --    0.14638   0.16857   0.20135   0.20684   0.22759
 Alpha virt. eigenvalues --    0.29705   0.33393   0.53748   0.55318   0.56278
 Alpha virt. eigenvalues --    0.58381   0.62357   0.63317   0.67110   0.68483
 Alpha virt. eigenvalues --    0.76076   0.80610   0.82640   0.83432   0.89506
 Alpha virt. eigenvalues --    0.90796   0.91643   0.93751   0.96274   0.97109
 Alpha virt. eigenvalues --    1.00898   1.02535   1.06414   1.10287   1.12154
 Alpha virt. eigenvalues --    1.19964   1.29487   1.43992   1.51348   1.66695
 Alpha virt. eigenvalues --    1.88975   1.95426
          Condensed to atoms (all electrons):
               1          2          3          4          5          6
     1  C    5.281293   0.344455   0.227433  -0.031444   0.266842  -0.021057
     2  H    0.344455   0.629560  -0.039486  -0.006312  -0.059387   0.001336
     3  O    0.227433  -0.039486   8.282913   0.235230  -0.060864   0.003674
     4  H   -0.031444  -0.006312   0.235230   0.428758  -0.001755  -0.000116
     5  C    0.266842  -0.059387  -0.060864  -0.001755   5.231564   0.336189
     6  H   -0.021057   0.001336   0.003674  -0.000116   0.336189   0.589143
     7  H   -0.031841  -0.003650  -0.001028   0.003163   0.361602  -0.029734
     8  H   -0.031484   0.005447   0.002215  -0.000679   0.368676  -0.024095
     9  C    0.148080  -0.035721  -0.057210   0.007712  -0.043015  -0.000631
    10  O   -0.104767   0.003300   0.000361  -0.000098   0.003036   0.000171
    11  O   -0.118972   0.005020   0.002247  -0.000204   0.003216   0.000033
    12  H    0.010564  -0.000506  -0.000331   0.000031  -0.000345  -0.000000
               7          8          9         10         11         12
     1  C   -0.031841  -0.031484   0.148080  -0.104767  -0.118972   0.010564
     2  H   -0.003650   0.005447  -0.035721   0.003300   0.005020  -0.000506
     3  O   -0.001028   0.002215  -0.057210   0.000361   0.002247  -0.000331
     4  H    0.003163  -0.000679   0.007712  -0.000098  -0.000204   0.000031
     5  C    0.361602   0.368676  -0.043015   0.003036   0.003216  -0.000345
     6  H   -0.029734  -0.024095  -0.000631   0.000171   0.000033  -0.000000
     7  H    0.593907  -0.028786   0.006344   0.000207  -0.000058   0.000004
     8  H   -0.028786   0.525654  -0.007914   0.007105   0.000173  -0.000005
     9  C    0.006344  -0.007914   4.793618   0.505843   0.176809  -0.013833
    10  O    0.000207   0.007105   0.505843   8.088963  -0.109400   0.005403
    11  O   -0.000058   0.000173   0.176809  -0.109400   8.362685   0.225300
    12  H    0.000004  -0.000005  -0.013833   0.005403   0.225300   0.386956
 Mulliken charges:
               1
     1  C    0.060896
     2  H    0.155943
     3  O   -0.595153
     4  H    0.365713
     5  C   -0.405759
     6  H    0.145087
     7  H    0.129869
     8  H    0.183694
     9  C    0.519919
    10  O   -0.400124
    11  O   -0.546848
    12  H    0.386763
 Sum of Mulliken charges =  -0.00000
 Mulliken charges with hydrogens summed into heavy atoms:
               1
     1  C    0.216840
     3  O   -0.229440
     5  C    0.052891
     9  C    0.519919
    10  O   -0.400124
    11  O   -0.160086
 Electronic spatial extent (au):  <R**2>=            574.5629
 Charge=             -0.0000 electrons
 Dipole moment (field-independent basis, Debye):
    X=             -1.1647    Y=             -0.7932    Z=             -2.2782  Tot=              2.6788
 Quadrupole moment (field-independent basis, Debye-Ang):
   XX=            -25.3608   YY=            -38.1742   ZZ=            -38.3591
   XY=              1.0030   XZ=              0.4988   YZ=             -1.5055
 Traceless Quadrupole moment (field-independent basis, Debye-Ang):
   XX=              8.6039   YY=             -4.2095   ZZ=             -4.3944
   XY=              1.0030   XZ=              0.4988   YZ=             -1.5055
 Octapole moment (field-independent basis, Debye-Ang**2):
  XXX=             18.6583  YYY=             -8.2599  ZZZ=              0.7127  XYY=             -8.9535
  XXY=            -11.6259  XXZ=              0.4459  XZZ=              0.3032  YZZ=             -0.1836
  YYZ=             -2.2502  XYZ=             -4.1380
 Hexadecapole moment (field-independent basis, Debye-Ang**3):
 XXXX=           -290.3159 YYYY=           -196.2260 ZZZZ=           -103.1862 XXXY=             13.7061
 XXXZ=            -10.6160 YYYX=             15.2898 YYYZ=             -2.8092 ZZZX=             -2.0893
 ZZZY=              0.9387 XXYY=            -88.8145 XXZZ=            -85.7793 YYZZ=            -51.7717
 XXYZ=             -6.2230 YYXZ=             -4.3296 ZZXY=              0.5040
 N-N= 2.457122652451D+02 E-N=-1.297530633837D+03  KE= 3.415995878410D+02
 Unable to Open any file for archive entry.
 1\1\GINC-CCC083\Scan\RB3LYP\6-31G\C3H6O3\ROOT\21-Feb-2025\0\\# opt=mod
 redundant b3lyp/6-31g\\Lactic acid\\0,1\C,-0.3706204933,-0.7505601002,
 -0.2347249016\H,0.4438550775,-0.2940537437,0.3405598054\O,-0.322740087
 1,-0.2888525192,-1.6242216616\H,-0.3438584013,0.6893378378,-1.64301302
 63\C,-1.725853882,-0.4744060018,0.4054114429\H,-1.7534268265,-0.832369
 0513,1.4405453294\H,-1.9292338075,0.602433678,0.4132431262\H,-2.510642
 8646,-0.9841015272,-0.1585633164\C,-0.089627418,-2.2403673387,-0.33873
 20316\O,-0.9329027842,-3.1268298385,-0.4753919211\O,1.2587488611,-2.50
 1787429,-0.2662824108\H,1.4293062459,-3.4612683162,-0.3913769945\\Vers
 ion=ES64L-G16RevC.02\State=1-A\HF=-343.4824949,-343.4829396,-343.48329
 71,-343.4834652,-343.4834218,-343.4832348,-343.4830045,-343.4828187,-3
 43.4827163,-343.4827034,-343.4827687,-343.4829048,-343.4831106,-343.48
 33799,-343.4836777,-343.4839288,-343.48406,-343.484035,-343.4838851\RM
 SD=6.174e-09,6.512e-09,2.660e-09,8.607e-09,6.899e-09,3.169e-09,6.062e-
 09,3.934e-09,4.411e-09,5.521e-09,3.770e-09,8.920e-09,4.806e-09,5.993e-
 09,7.013e-09,9.558e-09,1.637e-09,3.945e-09,8.253e-09\PG=C01 [X(C3H6O3)
 ]\\@
 The archive entry for this job was punched.


 TO DETECT ERRORS, THE PROGRAMMER MUST HAVE A CONNIVING MIND,
 ONE THAT DELIGHTS IN UNCOVERING FLAWS WHERE BEAUTY AND
 PERFECTION WERE ONCE THOUGHT TO LIE.

             -- THE PSYCHOLOGY OF COMPUTER PROGRAMMING
                GERALD M. WEINBERG
 Job cpu time:       0 days  0 hours 22 minutes 46.0 seconds.
 Elapsed time:       0 days  0 hours  6 minutes  0.4 seconds.
 File lengths (MBytes):  RWF=     10 Int=      0 D2E=      0 Chk=      3 Scr=      1
 Normal termination of Gaussian 16 at Fri Feb 21 13:54:22 2025.
