 Entering Gaussian System, Link 0=/apl/gaussian/16c02/g16/._.g16
 Initial command:
 /apl/gaussian/16c02/g16/l1.exe "/lwork/users/ux8/8286968.ccpbs1/gaussian/Gau-724083.inp" -scrdir="/lwork/users/ux8/8286968.ccpbs1/gaussian/"
 Default CPUs for threads: 114,115,116,117,118,119,120,121
 Default is to use a total of   8 processors:
                                8 via shared-memory
                                1 via Linda
 Entering Link 1 = /apl/gaussian/16c02/g16/l1.exe PID=    724084.
  
 Copyright (c) 1988-2021, Gaussian, Inc.  All Rights Reserved.
  
 This is part of the Gaussian(R) 16 program.  It is based on
 the Gaussian(R) 09 system (copyright 2009, Gaussian, Inc.),
 the Gaussian(R) 03 system (copyright 2003, Gaussian, Inc.),
 the Gaussian(R) 98 system (copyright 1998, Gaussian, Inc.),
 the Gaussian(R) 94 system (copyright 1995, Gaussian, Inc.),
 the Gaussian 92(TM) system (copyright 1992, Gaussian, Inc.),
 the Gaussian 90(TM) system (copyright 1990, Gaussian, Inc.),
 the Gaussian 88(TM) system (copyright 1988, Gaussian, Inc.),
 the Gaussian 86(TM) system (copyright 1986, Carnegie Mellon
 University), and the Gaussian 82(TM) system (copyright 1983,
 Carnegie Mellon University). Gaussian is a federally registered
 trademark of Gaussian, Inc.
  
 This software contains proprietary and confidential information,
 including trade secrets, belonging to Gaussian, Inc.
  
 This software is provided under written license and may be
 used, copied, transmitted, or stored only in accord with that
 written license.
  
 The following legend is applicable only to US Government
 contracts under FAR:
  
                    RESTRICTED RIGHTS LEGEND
  
 Use, reproduction and disclosure by the US Government is
 subject to restrictions as set forth in subparagraphs (a)
 and (c) of the Commercial Computer Software - Restricted
 Rights clause in FAR 52.227-19.
  
 Gaussian, Inc.
 340 Quinnipiac St., Bldg. 40, Wallingford CT 06492
  
  
 ---------------------------------------------------------------
 Warning -- This program may not be used in any manner that
 competes with the business of Gaussian, Inc. or will provide
 assistance to any competitor of Gaussian, Inc.  The licensee
 of this program is prohibited from giving any competitor of
 Gaussian, Inc. access to this program.  By using this program,
 the user acknowledges that Gaussian, Inc. is engaged in the
 business of creating and licensing software in the field of
 computational chemistry and represents and warrants to the
 licensee that it is not a competitor of Gaussian, Inc. and that
 it will not use this program in any manner prohibited above.
 ---------------------------------------------------------------
  

 Cite this work as:
 Gaussian 16, Revision C.02,
 M. J. Frisch, G. W. Trucks, H. B. Schlegel, G. E. Scuseria, 
 M. A. Robb, J. R. Cheeseman, G. Scalmani, V. Barone, 
 G. A. Petersson, H. Nakatsuji, X. Li, M. Caricato, A. V. Marenich, 
 J. Bloino, B. G. Janesko, R. Gomperts, B. Mennucci, H. P. Hratchian, 
 J. V. Ortiz, A. F. Izmaylov, J. L. Sonnenberg, D. Williams-Young, 
 F. Ding, F. Lipparini, F. Egidi, J. Goings, B. Peng, A. Petrone, 
 T. Henderson, D. Ranasinghe, V. G. Zakrzewski, J. Gao, N. Rega, 
 G. Zheng, W. Liang, M. Hada, M. Ehara, K. Toyota, R. Fukuda, 
 J. Hasegawa, M. Ishida, T. Nakajima, Y. Honda, O. Kitao, H. Nakai, 
 T. Vreven, K. Throssell, J. A. Montgomery, Jr., J. E. Peralta, 
 F. Ogliaro, M. J. Bearpark, J. J. Heyd, E. N. Brothers, K. N. Kudin, 
 V. N. Staroverov, T. A. Keith, R. Kobayashi, J. Normand, 
 K. Raghavachari, A. P. Rendell, J. C. Burant, S. S. Iyengar, 
 J. Tomasi, M. Cossi, J. M. Millam, M. Klene, C. Adamo, R. Cammi, 
 J. W. Ochterski, R. L. Martin, K. Morokuma, O. Farkas, 
 J. B. Foresman, and D. J. Fox, Gaussian, Inc., Wallingford CT, 2019.
 
 ******************************************
 Gaussian 16:  ES64L-G16RevC.02  7-Dec-2021
                21-Feb-2025 
 ******************************************
 %chk=phe.chk
 %mem=9600MB
 SetSPE:  set environment variable "OMP_PROC_BIND" = "true"
 SetSPE:  set environment variable "OMP_PLACES" = "{114},{115},{116},{117},{118},{119},{120},{121}"
 ---------------------------------
 # opt=modredundant b3lyp/6-31g(d)
 ---------------------------------
 1/18=120,19=15,26=3,38=1/1,3;
 2/9=110,12=2,17=6,18=5,40=1/2;
 3/5=1,6=6,7=1,11=2,25=1,30=1,71=1,74=-5/1,2,3;
 4//1;
 5/5=2,38=5/2;
 6/7=2,8=2,9=2,10=2,28=1/1;
 7//1,2,3,16;
 1/18=20,19=15,26=3/3(2);
 2/9=110/2;
 99//99;
 2/9=110/2;
 3/5=1,6=6,7=1,11=2,25=1,30=1,71=1,74=-5/1,2,3;
 4/5=5,16=3,69=1/1;
 5/5=2,38=5/2;
 7//1,2,3,16;
 1/18=20,19=15,26=3/3(-5);
 2/9=110/2;
 6/7=2,8=2,9=2,10=2,19=2,28=1/1;
 99/9=1/99;
 -------------------
 L-(-)-Phenylalanine
 -------------------
 Symbolic Z-matrix:
 Charge =  0 Multiplicity = 1
 C                    -0.89193   2.231    -0.00752 
 H                    -1.9282    1.96449  -0.01218 
 N                    -0.07218   1.0108   -0.00431 
 H                    -0.28119   0.47095   0.8111 
 H                    -0.27398   0.4715   -0.82188 
 C                    -0.57005   3.06236  -1.26324 
 O                    -0.67603   4.3159   -1.23213 
 O                    -0.15074   2.40986  -2.46462 
 H                     0.43099   2.99213  -2.95872 
 C                    -0.58115   3.06152   1.25155 
 H                    -1.17784   3.9497    1.24921 
 H                     0.45511   3.32804   1.25621 
 C                    -0.90303   2.23016   2.50727 
 C                     0.08474   1.4201    3.08348 
 C                    -2.18371   2.28369   3.07376 
 C                    -0.20817   0.66356   4.22619 
 H                     1.06257   1.37923   2.65095 
 C                    -2.47662   1.52715   4.21646 
 H                    -2.9379    2.90219   2.6338 
 C                    -1.48885   0.71709   4.79268 
 H                     0.54601   0.04506   4.66614 
 H                    -3.45445   1.56802   4.64899 
 H                    -1.71249   0.13945   5.66516 
 
 The following ModRedundant input section has been read:
 D       1      10      13      14 S  18 10.000                                
 

 GradGradGradGradGradGradGradGradGradGradGradGradGradGradGradGradGradGrad
 Berny optimization.
 Initialization pass.
                           ----------------------------
                           !    Initial Parameters    !
                           ! (Angstroms and Degrees)  !
 --------------------------                            --------------------------
 ! Name  Definition              Value          Derivative Info.                !
 --------------------------------------------------------------------------------
 ! R1    R(1,2)                  1.07           estimate D2E/DX2                !
 ! R2    R(1,3)                  1.47           estimate D2E/DX2                !
 ! R3    R(1,6)                  1.54           estimate D2E/DX2                !
 ! R4    R(1,10)                 1.54           estimate D2E/DX2                !
 ! R5    R(3,4)                  1.0            estimate D2E/DX2                !
 ! R6    R(3,5)                  1.0            estimate D2E/DX2                !
 ! R7    R(6,7)                  1.2584         estimate D2E/DX2                !
 ! R8    R(6,8)                  1.43           estimate D2E/DX2                !
 ! R9    R(8,9)                  0.96           estimate D2E/DX2                !
 ! R10   R(10,11)                1.07           estimate D2E/DX2                !
 ! R11   R(10,12)                1.07           estimate D2E/DX2                !
 ! R12   R(10,13)                1.54           estimate D2E/DX2                !
 ! R13   R(13,14)                1.4014         estimate D2E/DX2                !
 ! R14   R(13,15)                1.4014         estimate D2E/DX2                !
 ! R15   R(14,16)                1.4014         estimate D2E/DX2                !
 ! R16   R(14,17)                1.07           estimate D2E/DX2                !
 ! R17   R(15,18)                1.4014         estimate D2E/DX2                !
 ! R18   R(15,19)                1.07           estimate D2E/DX2                !
 ! R19   R(16,20)                1.4014         estimate D2E/DX2                !
 ! R20   R(16,21)                1.07           estimate D2E/DX2                !
 ! R21   R(18,20)                1.4014         estimate D2E/DX2                !
 ! R22   R(18,22)                1.07           estimate D2E/DX2                !
 ! R23   R(20,23)                1.07           estimate D2E/DX2                !
 ! A1    A(2,1,3)              109.4712         estimate D2E/DX2                !
 ! A2    A(2,1,6)              109.4712         estimate D2E/DX2                !
 ! A3    A(2,1,10)             109.4712         estimate D2E/DX2                !
 ! A4    A(3,1,6)              109.4712         estimate D2E/DX2                !
 ! A5    A(3,1,10)             109.4712         estimate D2E/DX2                !
 ! A6    A(6,1,10)             109.4712         estimate D2E/DX2                !
 ! A7    A(1,3,4)              109.4712         estimate D2E/DX2                !
 ! A8    A(1,3,5)              109.4712         estimate D2E/DX2                !
 ! A9    A(4,3,5)              109.4712         estimate D2E/DX2                !
 ! A10   A(1,6,7)              120.0            estimate D2E/DX2                !
 ! A11   A(1,6,8)              120.0            estimate D2E/DX2                !
 ! A12   A(7,6,8)              120.0            estimate D2E/DX2                !
 ! A13   A(6,8,9)              109.4712         estimate D2E/DX2                !
 ! A14   A(1,10,11)            109.4712         estimate D2E/DX2                !
 ! A15   A(1,10,12)            109.4712         estimate D2E/DX2                !
 ! A16   A(1,10,13)            109.4712         estimate D2E/DX2                !
 ! A17   A(11,10,12)           109.4712         estimate D2E/DX2                !
 ! A18   A(11,10,13)           109.4712         estimate D2E/DX2                !
 ! A19   A(12,10,13)           109.4712         estimate D2E/DX2                !
 ! A20   A(10,13,14)           120.0            estimate D2E/DX2                !
 ! A21   A(10,13,15)           120.0            estimate D2E/DX2                !
 ! A22   A(14,13,15)           120.0            estimate D2E/DX2                !
 ! A23   A(13,14,16)           120.0            estimate D2E/DX2                !
 ! A24   A(13,14,17)           120.0            estimate D2E/DX2                !
 ! A25   A(16,14,17)           120.0            estimate D2E/DX2                !
 ! A26   A(13,15,18)           120.0            estimate D2E/DX2                !
 ! A27   A(13,15,19)           120.0            estimate D2E/DX2                !
 ! A28   A(18,15,19)           120.0            estimate D2E/DX2                !
 ! A29   A(14,16,20)           120.0            estimate D2E/DX2                !
 ! A30   A(14,16,21)           120.0            estimate D2E/DX2                !
 ! A31   A(20,16,21)           120.0            estimate D2E/DX2                !
 ! A32   A(15,18,20)           120.0            estimate D2E/DX2                !
 ! A33   A(15,18,22)           120.0            estimate D2E/DX2                !
 ! A34   A(20,18,22)           120.0            estimate D2E/DX2                !
 ! A35   A(16,20,18)           120.0            estimate D2E/DX2                !
 ! A36   A(16,20,23)           120.0            estimate D2E/DX2                !
 ! A37   A(18,20,23)           120.0            estimate D2E/DX2                !
 ! D1    D(2,1,3,4)            -60.0            estimate D2E/DX2                !
 ! D2    D(2,1,3,5)             60.0            estimate D2E/DX2                !
 ! D3    D(6,1,3,4)            180.0            estimate D2E/DX2                !
 ! D4    D(6,1,3,5)            -60.0            estimate D2E/DX2                !
 ! D5    D(10,1,3,4)            60.0            estimate D2E/DX2                !
 ! D6    D(10,1,3,5)           180.0            estimate D2E/DX2                !
 ! D7    D(2,1,6,7)             90.0            estimate D2E/DX2                !
 ! D8    D(2,1,6,8)            -90.0            estimate D2E/DX2                !
 ! D9    D(3,1,6,7)           -150.0            estimate D2E/DX2                !
 ! D10   D(3,1,6,8)             30.0            estimate D2E/DX2                !
 ! D11   D(10,1,6,7)           -30.0            estimate D2E/DX2                !
 ! D12   D(10,1,6,8)           150.0            estimate D2E/DX2                !
 ! D13   D(2,1,10,11)          -60.0            estimate D2E/DX2                !
 ! D14   D(2,1,10,12)          180.0            estimate D2E/DX2                !
 ! D15   D(2,1,10,13)           60.0            estimate D2E/DX2                !
 ! D16   D(3,1,10,11)          180.0            estimate D2E/DX2                !
 ! D17   D(3,1,10,12)           60.0            estimate D2E/DX2                !
 ! D18   D(3,1,10,13)          -60.0            estimate D2E/DX2                !
 ! D19   D(6,1,10,11)           60.0            estimate D2E/DX2                !
 ! D20   D(6,1,10,12)          -60.0            estimate D2E/DX2                !
 ! D21   D(6,1,10,13)          180.0            estimate D2E/DX2                !
 ! D22   D(1,6,8,9)           -150.0            estimate D2E/DX2                !
 ! D23   D(7,6,8,9)             30.0            estimate D2E/DX2                !
 ! D24   D(1,10,13,14)          90.0            Scan                            !
 ! D25   D(1,10,13,15)         -90.0            estimate D2E/DX2                !
 ! D26   D(11,10,13,14)       -150.0            estimate D2E/DX2                !
 ! D27   D(11,10,13,15)         30.0            estimate D2E/DX2                !
 ! D28   D(12,10,13,14)        -30.0            estimate D2E/DX2                !
 ! D29   D(12,10,13,15)        150.0            estimate D2E/DX2                !
 ! D30   D(10,13,14,16)       -179.9999         estimate D2E/DX2                !
 ! D31   D(10,13,14,17)         -0.0001         estimate D2E/DX2                !
 ! D32   D(15,13,14,16)          0.0001         estimate D2E/DX2                !
 ! D33   D(15,13,14,17)        179.9999         estimate D2E/DX2                !
 ! D34   D(10,13,15,18)       -179.9999         estimate D2E/DX2                !
 ! D35   D(10,13,15,19)          0.0001         estimate D2E/DX2                !
 ! D36   D(14,13,15,18)          0.0001         estimate D2E/DX2                !
 ! D37   D(14,13,15,19)       -179.9999         estimate D2E/DX2                !
 ! D38   D(13,14,16,20)         -0.0002         estimate D2E/DX2                !
 ! D39   D(13,14,16,21)        179.9999         estimate D2E/DX2                !
 ! D40   D(17,14,16,20)        179.9999         estimate D2E/DX2                !
 ! D41   D(17,14,16,21)          0.0001         estimate D2E/DX2                !
 ! D42   D(13,15,18,20)         -0.0001         estimate D2E/DX2                !
 ! D43   D(13,15,18,22)       -180.0            estimate D2E/DX2                !
 ! D44   D(19,15,18,20)        179.9999         estimate D2E/DX2                !
 ! D45   D(19,15,18,22)          0.0            estimate D2E/DX2                !
 ! D46   D(14,16,20,18)          0.0002         estimate D2E/DX2                !
 ! D47   D(14,16,20,23)       -179.9999         estimate D2E/DX2                !
 ! D48   D(21,16,20,18)       -179.9999         estimate D2E/DX2                !
 ! D49   D(21,16,20,23)          0.0            estimate D2E/DX2                !
 ! D50   D(15,18,20,16)          0.0            estimate D2E/DX2                !
 ! D51   D(15,18,20,23)       -179.9999         estimate D2E/DX2                !
 ! D52   D(22,18,20,16)        179.9998         estimate D2E/DX2                !
 ! D53   D(22,18,20,23)         -0.0001         estimate D2E/DX2                !
 --------------------------------------------------------------------------------
 Trust Radius=3.00D-01 FncErr=1.00D-07 GrdErr=1.00D-06 EigMax=2.50D+02 EigMin=1.00D-04
 Number of optimizations in scan=  19
 Number of steps in this run=    123 maximum allowed number of steps=    138.
 GradGradGradGradGradGradGradGradGradGradGradGradGradGradGradGradGradGrad

                          Input orientation:                          
 ---------------------------------------------------------------------
 Center     Atomic      Atomic             Coordinates (Angstroms)
 Number     Number       Type             X           Y           Z
 ---------------------------------------------------------------------
      1          6           0       -0.891932    2.231000   -0.007518
      2          1           0       -1.928199    1.964487   -0.012180
      3          7           0       -0.072178    1.010798   -0.004306
      4          1           0       -0.281190    0.470953    0.811097
      5          1           0       -0.273983    0.471496   -0.821880
      6          6           0       -0.570053    3.062361   -1.263238
      7          8           0       -0.676026    4.315905   -1.232125
      8          8           0       -0.150742    2.409857   -2.464619
      9          1           0        0.430994    2.992132   -2.958724
     10          6           0       -0.581153    3.061525    1.251547
     11          1           0       -1.177845    3.949699    1.249209
     12          1           0        0.455114    3.328038    1.256209
     13          6           0       -0.903032    2.230164    2.507267
     14          6           0        0.084740    1.420099    3.083482
     15          6           0       -2.183714    2.283690    3.073757
     16          6           0       -0.208171    0.663559    4.226186
     17          1           0        1.062569    1.379229    2.650953
     18          6           0       -2.476623    1.527153    4.216463
     19          1           0       -2.937900    2.902191    2.633803
     20          6           0       -1.488851    0.717088    4.792678
     21          1           0        0.546015    0.045055    4.666138
     22          1           0       -3.454452    1.568021    4.648991
     23          1           0       -1.712495    0.139454    5.665159
 ---------------------------------------------------------------------
                    Distance matrix (angstroms):
                    1          2          3          4          5
     1  C    0.000000
     2  H    1.070000   0.000000
     3  N    1.470000   2.086720   0.000000
     4  H    2.034920   2.370879   1.000000   0.000000
     5  H    2.034920   2.370879   1.000000   1.632993   0.000000
     6  C    1.540000   2.148263   2.457987   3.331921   2.644813
     7  O    2.427572   2.930080   3.577136   4.371991   3.887083
     8  O    2.572683   3.061399   2.831375   3.808764   2.543821
     9  H    3.322510   3.912028   3.592695   4.590762   3.378861
    10  C    1.540000   2.148263   2.457987   2.644813   3.331921
    11  H    2.148263   2.468846   3.380966   3.619061   4.147803
    12  H    2.148263   3.024610   2.690081   2.983823   3.606919
    13  C    2.514809   2.732978   2.912931   2.521607   3.817307
    14  C    3.341516   3.732480   3.118747   2.489682   4.034896
    15  C    3.341516   3.112906   3.943768   3.467743   4.701819
    16  C    4.566032   4.755487   4.246896   3.421295   5.052147
    17  H    3.407794   4.047160   2.910978   2.452697   3.830264
    18  C    4.566034   4.286427   4.884964   4.187123   5.599191
    19  H    3.407794   2.983289   4.330052   4.036246   4.994645
    20  C    5.068543   4.983542   5.010417   4.167975   5.749738
    21  H    5.356221   5.629619   4.809144   3.965728   5.565302
    22  H    5.356223   4.920686   5.779571   5.099272   6.422475
    23  H    6.101405   5.967366   5.965962   5.071532   6.652912
                    6          7          8          9         10
     6  C    0.000000
     7  O    1.258400   0.000000
     8  O    1.430000   2.329803   0.000000
     9  H    1.970203   2.441108   0.960000   0.000000
    10  C    2.514809   2.784079   3.797343   4.330778   0.000000
    11  H    2.732978   2.557918   4.149526   4.605648   1.070000
    12  H    2.732978   2.906401   3.880036   4.228366   1.070000
    13  C    3.875582   4.287762   5.031688   5.677788   1.540000
    14  C    4.692521   5.252516   5.640612   6.252954   2.548270
    15  C    4.692521   4.994361   5.901059   6.612822   2.548270
    16  C    6.001582   6.584199   6.915181   7.579823   3.838989
    17  H    4.562815   5.169630   5.357555   5.871016   2.736837
    18  C    6.001583   6.380157   7.129218   7.879322   3.838989
    19  H    4.562815   4.696814   5.831342   6.529463   2.736837
    20  C    6.558858   7.064731   7.571286   8.303365   4.342800
    21  H    6.745905   7.383972   7.544896   8.175391   4.693509
    22  H    6.745907   7.061023   7.888386   8.660376   4.693509
    23  H    7.606000   8.129547   8.584119   9.332935   5.412800
                   11         12         13         14         15
    11  H    0.000000
    12  H    1.747303   0.000000
    13  C    2.148263   2.148263   0.000000
    14  C    3.370097   2.667646   1.401400   0.000000
    15  C    2.667646   3.370097   1.401400   2.427296   0.000000
    16  C    4.538874   4.044769   2.427296   1.401400   2.802800
    17  H    3.686686   2.472280   2.146700   1.070000   3.396345
    18  C    4.044769   4.538874   2.427296   2.802800   1.401400
    19  H    2.472280   3.686686   2.146700   3.396345   1.070000
    20  C    4.806524   4.806524   2.802800   2.427296   2.427296
    21  H    5.467480   4.734327   3.396345   2.146700   3.872800
    22  H    4.734326   5.467480   3.396345   3.872800   2.146700
    23  H    5.856999   5.856999   3.872800   3.396345   3.396345
                   16         17         18         19         20
    16  C    0.000000
    17  H    2.146700   0.000000
    18  C    2.427296   3.872800   0.000000
    19  H    3.872800   4.280590   2.146700   0.000000
    20  C    1.401400   3.396345   1.401400   3.396345   0.000000
    21  H    1.070000   2.471400   3.396345   4.942800   2.146700
    22  H    3.396345   4.942800   1.070000   2.471400   2.146700
    23  H    2.146700   4.280590   2.146700   4.280590   1.070000
                   21         22         23
    21  H    0.000000
    22  H    4.280590   0.000000
    23  H    2.471400   2.471400   0.000000
 Stoichiometry    C9H11NO2
 Framework group  C1[X(C9H11NO2)]
 Deg. of freedom    63
 Full point group                 C1      NOp   1
 Largest Abelian subgroup         C1      NOp   1
 Largest concise Abelian subgroup C1      NOp   1
                         Standard orientation:                         
 ---------------------------------------------------------------------
 Center     Atomic      Atomic             Coordinates (Angstroms)
 Number     Number       Type             X           Y           Z
 ---------------------------------------------------------------------
      1          6           0       -1.340270    0.010783   -0.397013
      2          1           0       -1.103908   -0.464896   -1.325864
      3          7           0       -1.108276    1.457602   -0.514456
      4          1           0       -0.148230    1.624076   -0.739397
      5          1           0       -1.689604    1.830800   -1.237493
      6          6           0       -2.818741   -0.245586   -0.050605
      7          8           0       -3.140166   -1.256235    0.626777
      8          8           0       -3.826351    0.664820   -0.498692
      9          1           0       -4.554313    0.669784    0.127125
     10          6           0       -0.445026   -0.563941    0.716463
     11          1           0       -0.613893   -1.617068    0.801949
     12          1           0       -0.681388   -0.088262    1.645313
     13          6           0        1.033445   -0.307572    0.370054
     14          6           0        1.659268    0.870960    0.798226
     15          6           0        1.753030   -1.252807   -0.373349
     16          6           0        3.004675    1.104257    0.482992
     17          1           0        1.109848    1.592669    1.365829
     18          6           0        3.098439   -1.019512   -0.688579
     19          1           0        1.275200   -2.152642   -0.700268
     20          6           0        3.724262    0.159020   -0.260408
     21          1           0        3.482504    2.004093    0.809909
     22          1           0        3.647859   -1.741220   -1.256184
     23          1           0        4.751511    0.337147   -0.501094
 ---------------------------------------------------------------------
 Rotational constants (GHZ):           2.5107698           0.4462837           0.4125464
 Standard basis: 6-31G(d) (6D, 7F)
 There are   202 symmetry adapted cartesian basis functions of A   symmetry.
 There are   202 symmetry adapted basis functions of A   symmetry.
   202 basis functions,   380 primitive gaussians,   202 cartesian basis functions
    44 alpha electrons       44 beta electrons
       nuclear repulsion energy       664.2089685154 Hartrees.
 NAtoms=   23 NActive=   23 NUniq=   23 SFac= 1.00D+00 NAtFMM=   60 NAOKFM=F Big=F
 Integral buffers will be    131072 words long.
 Raffenetti 2 integral format.
 Two-electron integral symmetry is turned on.
 One-electron integrals computed using PRISM.
 NBasis=   202 RedAO= T EigKep=  4.82D-04  NBF=   202
 NBsUse=   202 1.00D-06 EigRej= -1.00D+00 NBFU=   202
 ExpMin= 1.61D-01 ExpMax= 5.48D+03 ExpMxC= 8.25D+02 IAcc=3 IRadAn=         5 AccDes= 0.00D+00
 Harris functional with IExCor=  402 and IRadAn=       5 diagonalized for initial guess.
 HarFok:  IExCor=  402 AccDes= 0.00D+00 IRadAn=         5 IDoV= 1 UseB2=F ITyADJ=14
 ICtDFT=  3500011 ScaDFX=  1.000000  1.000000  1.000000  1.000000
 FoFCou: FMM=F IPFlag=           0 FMFlag=      100000 FMFlg1=           0
         NFxFlg=           0 DoJE=T BraDBF=F KetDBF=T FulRan=T
         wScrn=  0.000000 ICntrl=       500 IOpCl=  0 I1Cent=   200000004 NGrid=           0
         NMat0=    1 NMatS0=      1 NMatT0=    0 NMatD0=    1 NMtDS0=    0 NMtDT0=    0
 Petite list used in FoFCou.
 Requested convergence on RMS density matrix=1.00D-08 within 128 cycles.
 Requested convergence on MAX density matrix=1.00D-06.
 Requested convergence on             energy=1.00D-06.
 No special actions if energy rises.
 Integral accuracy reduced to 1.0D-05 until final iterations.
 Initial convergence to 1.0D-05 achieved.  Increase integral accuracy.
 SCF Done:  E(RB3LYP) =  -554.764745450     A.U. after   15 cycles
            NFock= 15  Conv=0.28D-08     -V/T= 2.0095

 **********************************************************************

            Population analysis using the SCF Density.

 **********************************************************************

 Orbital symmetries:
       Occupied  (A) (A) (A) (A) (A) (A) (A) (A) (A) (A) (A) (A)
                 (A) (A) (A) (A) (A) (A) (A) (A) (A) (A) (A) (A)
                 (A) (A) (A) (A) (A) (A) (A) (A) (A) (A) (A) (A)
                 (A) (A) (A) (A) (A) (A) (A) (A)
       Virtual   (A) (A) (A) (A) (A) (A) (A) (A) (A) (A) (A) (A)
                 (A) (A) (A) (A) (A) (A) (A) (A) (A) (A) (A) (A)
                 (A) (A) (A) (A) (A) (A) (A) (A) (A) (A) (A) (A)
                 (A) (A) (A) (A) (A) (A) (A) (A) (A) (A) (A) (A)
                 (A) (A) (A) (A) (A) (A) (A) (A) (A) (A) (A) (A)
                 (A) (A) (A) (A) (A) (A) (A) (A) (A) (A) (A) (A)
                 (A) (A) (A) (A) (A) (A) (A) (A) (A) (A) (A) (A)
                 (A) (A) (A) (A) (A) (A) (A) (A) (A) (A) (A) (A)
                 (A) (A) (A) (A) (A) (A) (A) (A) (A) (A) (A) (A)
                 (A) (A) (A) (A) (A) (A) (A) (A) (A) (A) (A) (A)
                 (A) (A) (A) (A) (A) (A) (A) (A) (A) (A) (A) (A)
                 (A) (A) (A) (A) (A) (A) (A) (A) (A) (A) (A) (A)
                 (A) (A) (A) (A) (A) (A) (A) (A) (A) (A) (A) (A)
                 (A) (A)
 The electronic state is 1-A.
 Alpha  occ. eigenvalues --  -19.19175 -19.14615 -14.31148 -10.33239 -10.23816
 Alpha  occ. eigenvalues --  -10.19946 -10.19246 -10.19214 -10.19058 -10.19046
 Alpha  occ. eigenvalues --  -10.18865 -10.18821  -1.07516  -0.99789  -0.89845
 Alpha  occ. eigenvalues --   -0.85312  -0.77740  -0.74666  -0.72679  -0.66580
 Alpha  occ. eigenvalues --   -0.61002  -0.59808  -0.57520  -0.52010  -0.50487
 Alpha  occ. eigenvalues --   -0.49652  -0.48176  -0.46374  -0.45154  -0.44579
 Alpha  occ. eigenvalues --   -0.42485  -0.41267  -0.40135  -0.39404  -0.37730
 Alpha  occ. eigenvalues --   -0.37026  -0.35502  -0.34458  -0.33718  -0.31168
 Alpha  occ. eigenvalues --   -0.27586  -0.25231  -0.24756  -0.23673
 Alpha virt. eigenvalues --   -0.02012  -0.00609  -0.00263   0.06691   0.09641
 Alpha virt. eigenvalues --    0.11334   0.12914   0.13480   0.15229   0.15769
 Alpha virt. eigenvalues --    0.16693   0.17140   0.18311   0.18570   0.19308
 Alpha virt. eigenvalues --    0.20039   0.22312   0.23942   0.25648   0.30172
 Alpha virt. eigenvalues --    0.31163   0.32478   0.33194   0.34297   0.36779
 Alpha virt. eigenvalues --    0.45674   0.52462   0.52889   0.53840   0.54545
 Alpha virt. eigenvalues --    0.54764   0.56301   0.57478   0.58894   0.59066
 Alpha virt. eigenvalues --    0.59583   0.59760   0.61174   0.61567   0.62234
 Alpha virt. eigenvalues --    0.63759   0.64851   0.65874   0.69583   0.70317
 Alpha virt. eigenvalues --    0.71552   0.73259   0.76025   0.79934   0.80668
 Alpha virt. eigenvalues --    0.83165   0.83552   0.84331   0.84944   0.85232
 Alpha virt. eigenvalues --    0.86183   0.88078   0.89695   0.91703   0.92598
 Alpha virt. eigenvalues --    0.93221   0.93904   0.94726   0.96917   0.97683
 Alpha virt. eigenvalues --    0.99168   1.00768   1.02893   1.03323   1.05753
 Alpha virt. eigenvalues --    1.09768   1.11398   1.13247   1.14142   1.16138
 Alpha virt. eigenvalues --    1.17841   1.18982   1.23826   1.27390   1.30250
 Alpha virt. eigenvalues --    1.37348   1.40721   1.42724   1.43262   1.44864
 Alpha virt. eigenvalues --    1.47634   1.48963   1.50354   1.50794   1.54799
 Alpha virt. eigenvalues --    1.55626   1.59668   1.65675   1.69805   1.71871
 Alpha virt. eigenvalues --    1.74312   1.77895   1.79500   1.79808   1.81491
 Alpha virt. eigenvalues --    1.82916   1.85080   1.89749   1.90401   1.94147
 Alpha virt. eigenvalues --    1.94486   1.96584   1.98802   1.99848   2.01547
 Alpha virt. eigenvalues --    2.03154   2.05464   2.07324   2.11700   2.13902
 Alpha virt. eigenvalues --    2.15110   2.15419   2.20553   2.22761   2.26245
 Alpha virt. eigenvalues --    2.29064   2.30297   2.32862   2.35569   2.38336
 Alpha virt. eigenvalues --    2.39505   2.43055   2.47038   2.53623   2.58083
 Alpha virt. eigenvalues --    2.58279   2.59946   2.60858   2.62459   2.65949
 Alpha virt. eigenvalues --    2.72279   2.73127   2.74155   2.75651   2.76602
 Alpha virt. eigenvalues --    2.79525   2.91638   2.94848   3.02437   3.03906
 Alpha virt. eigenvalues --    3.40526   3.76964   3.83760   4.05136   4.08950
 Alpha virt. eigenvalues --    4.12178   4.14840   4.21455   4.33905   4.35603
 Alpha virt. eigenvalues --    4.42178   4.60947   4.70425
          Condensed to atoms (all electrons):
               1          2          3          4          5          6
     1  C    5.104039   0.366477   0.266969  -0.027537  -0.028752   0.289527
     2  H    0.366477   0.605934  -0.050429  -0.003693  -0.002719  -0.039126
     3  N    0.266969  -0.050429   7.025277   0.291554   0.306524  -0.037671
     4  H   -0.027537  -0.003693   0.291554   0.429681  -0.025418   0.005183
     5  H   -0.028752  -0.002719   0.306524  -0.025418   0.428929  -0.007296
     6  C    0.289527  -0.039126  -0.037671   0.005183  -0.007296   4.446058
     7  O   -0.076742   0.000644   0.001972  -0.000092   0.000070   0.509877
     8  O   -0.073782   0.000700   0.001829   0.000100   0.008063   0.269146
     9  H    0.007297  -0.000136  -0.000501   0.000025  -0.000282  -0.004304
    10  C    0.350933  -0.048572  -0.061892  -0.006671   0.006220  -0.027576
    11  H   -0.029226   0.000143   0.004720  -0.000070  -0.000224  -0.005682
    12  H   -0.034279   0.006384   0.001152  -0.000177  -0.000049  -0.004916
    13  C   -0.038466  -0.005072  -0.010642   0.011380   0.000380   0.004765
    14  C   -0.006648   0.000877  -0.003490   0.010733   0.000059  -0.000179
    15  C   -0.003310   0.004077  -0.000243   0.000117  -0.000031   0.000089
    16  C   -0.000047  -0.000010  -0.000253   0.000350   0.000006   0.000001
    17  H   -0.000138   0.000183   0.004294  -0.001559  -0.000033  -0.000092
    18  C   -0.000055  -0.000175   0.000035  -0.000121  -0.000002   0.000003
    19  H    0.000337   0.001082   0.000018  -0.000015  -0.000000  -0.000071
    20  C    0.000017  -0.000002   0.000019  -0.000116  -0.000000  -0.000000
    21  H   -0.000002  -0.000000  -0.000006   0.000011   0.000000  -0.000000
    22  H   -0.000001   0.000003   0.000000  -0.000000   0.000000  -0.000000
    23  H    0.000000  -0.000000   0.000000  -0.000001  -0.000000   0.000000
               7          8          9         10         11         12
     1  C   -0.076742  -0.073782   0.007297   0.350933  -0.029226  -0.034279
     2  H    0.000644   0.000700  -0.000136  -0.048572   0.000143   0.006384
     3  N    0.001972   0.001829  -0.000501  -0.061892   0.004720   0.001152
     4  H   -0.000092   0.000100   0.000025  -0.006671  -0.000070  -0.000177
     5  H    0.000070   0.008063  -0.000282   0.006220  -0.000224  -0.000049
     6  C    0.509877   0.269146  -0.004304  -0.027576  -0.005682  -0.004916
     7  O    8.079775  -0.072999   0.006366  -0.000640   0.009613   0.001247
     8  O   -0.072999   8.248148   0.224124   0.001480   0.000116   0.000070
     9  H    0.006366   0.224124   0.347179  -0.000236  -0.000010  -0.000018
    10  C   -0.000640   0.001480  -0.000236   5.160354   0.352964   0.361692
    11  H    0.009613   0.000116  -0.000010   0.352964   0.548198  -0.027825
    12  H    0.001247   0.000070  -0.000018   0.361692  -0.027825   0.558154
    13  C    0.000841  -0.000019   0.000000   0.336754  -0.029778  -0.030970
    14  C   -0.000004  -0.000001   0.000000  -0.052888   0.004344  -0.005029
    15  C   -0.000011  -0.000000   0.000000  -0.052210  -0.005831   0.004117
    16  C   -0.000000  -0.000000   0.000000   0.005995  -0.000174   0.000161
    17  H    0.000001   0.000000  -0.000000  -0.008760   0.000098   0.005683
    18  C   -0.000000  -0.000000   0.000000   0.006005   0.000140  -0.000209
    19  H    0.000000   0.000000  -0.000000  -0.009094   0.004908   0.000084
    20  C    0.000000   0.000000  -0.000000   0.000426   0.000007   0.000011
    21  H   -0.000000   0.000000  -0.000000  -0.000173   0.000003  -0.000005
    22  H   -0.000000   0.000000  -0.000000  -0.000173  -0.000006   0.000003
    23  H    0.000000  -0.000000  -0.000000   0.000006  -0.000000  -0.000000
              13         14         15         16         17         18
     1  C   -0.038466  -0.006648  -0.003310  -0.000047  -0.000138  -0.000055
     2  H   -0.005072   0.000877   0.004077  -0.000010   0.000183  -0.000175
     3  N   -0.010642  -0.003490  -0.000243  -0.000253   0.004294   0.000035
     4  H    0.011380   0.010733   0.000117   0.000350  -0.001559  -0.000121
     5  H    0.000380   0.000059  -0.000031   0.000006  -0.000033  -0.000002
     6  C    0.004765  -0.000179   0.000089   0.000001  -0.000092   0.000003
     7  O    0.000841  -0.000004  -0.000011  -0.000000   0.000001  -0.000000
     8  O   -0.000019  -0.000001  -0.000000  -0.000000   0.000000  -0.000000
     9  H    0.000000   0.000000   0.000000   0.000000  -0.000000   0.000000
    10  C    0.336754  -0.052888  -0.052210   0.005995  -0.008760   0.006005
    11  H   -0.029778   0.004344  -0.005831  -0.000174   0.000098   0.000140
    12  H   -0.030970  -0.005029   0.004117   0.000161   0.005683  -0.000209
    13  C    4.728361   0.534123   0.543883  -0.022627  -0.044486  -0.017642
    14  C    0.534123   4.986002  -0.045936   0.513793   0.358548  -0.044939
    15  C    0.543883  -0.045936   4.962920  -0.044194   0.006000   0.520270
    16  C   -0.022627   0.513793  -0.044194   4.879804  -0.045053  -0.024459
    17  H   -0.044486   0.358548   0.006000  -0.045053   0.579611   0.000280
    18  C   -0.017642  -0.044939   0.520270  -0.024459   0.000280   4.869896
    19  H   -0.045800   0.006266   0.357440   0.000290  -0.000164  -0.046552
    20  C   -0.035670  -0.035057  -0.035221   0.548174   0.004707   0.547907
    21  H    0.004024  -0.040914   0.000805   0.358575  -0.005262   0.004737
    22  H    0.004016   0.000789  -0.041016   0.004738   0.000017   0.358579
    23  H    0.000601   0.004910   0.004922  -0.044723  -0.000176  -0.044457
              19         20         21         22         23
     1  C    0.000337   0.000017  -0.000002  -0.000001   0.000000
     2  H    0.001082  -0.000002  -0.000000   0.000003  -0.000000
     3  N    0.000018   0.000019  -0.000006   0.000000   0.000000
     4  H   -0.000015  -0.000116   0.000011  -0.000000  -0.000001
     5  H   -0.000000  -0.000000   0.000000   0.000000  -0.000000
     6  C   -0.000071  -0.000000  -0.000000  -0.000000   0.000000
     7  O    0.000000   0.000000  -0.000000  -0.000000   0.000000
     8  O    0.000000   0.000000   0.000000   0.000000  -0.000000
     9  H   -0.000000  -0.000000  -0.000000  -0.000000  -0.000000
    10  C   -0.009094   0.000426  -0.000173  -0.000173   0.000006
    11  H    0.004908   0.000007   0.000003  -0.000006  -0.000000
    12  H    0.000084   0.000011  -0.000005   0.000003  -0.000000
    13  C   -0.045800  -0.035670   0.004024   0.004016   0.000601
    14  C    0.006266  -0.035057  -0.040914   0.000789   0.004910
    15  C    0.357440  -0.035221   0.000805  -0.041016   0.004922
    16  C    0.000290   0.548174   0.358575   0.004738  -0.044723
    17  H   -0.000164   0.004707  -0.005262   0.000017  -0.000176
    18  C   -0.046552   0.547907   0.004737   0.358579  -0.044457
    19  H    0.602682   0.004845   0.000018  -0.005440  -0.000185
    20  C    0.004845   4.855058  -0.044082  -0.044139   0.361833
    21  H    0.000018  -0.044082   0.595974  -0.000190  -0.005774
    22  H   -0.005440  -0.044139  -0.000190   0.597027  -0.005747
    23  H   -0.000185   0.361833  -0.005774  -0.005747   0.598671
 Mulliken charges:
               1
     1  C   -0.066613
     2  H    0.163429
     3  N   -0.739237
     4  H    0.316336
     5  H    0.314556
     6  C    0.602263
     7  O   -0.459918
     8  O   -0.606974
     9  H    0.420497
    10  C   -0.313944
    11  H    0.173572
    12  H    0.164721
    13  C    0.112044
    14  C   -0.185361
    15  C   -0.176634
    16  C   -0.130346
    17  H    0.146298
    18  C   -0.129240
    19  H    0.129350
    20  C   -0.128719
    21  H    0.132261
    22  H    0.131540
    23  H    0.130119
 Sum of Mulliken charges =  -0.00000
 Mulliken charges with hydrogens summed into heavy atoms:
               1
     1  C    0.096816
     3  N   -0.108345
     6  C    0.602263
     7  O   -0.459918
     8  O   -0.186477
    10  C    0.024350
    13  C    0.112044
    14  C   -0.039063
    15  C   -0.047284
    16  C    0.001915
    18  C    0.002299
    20  C    0.001400
 Electronic spatial extent (au):  <R**2>=           2635.5026
 Charge=             -0.0000 electrons
 Dipole moment (field-independent basis, Debye):
    X=              1.1062    Y=              1.1238    Z=             -1.2543  Tot=              2.0149
 Quadrupole moment (field-independent basis, Debye-Ang):
   XX=            -64.1527   YY=            -70.6059   ZZ=            -69.4113
   XY=             -4.2348   XZ=             -1.1645   YZ=              2.8885
 Traceless Quadrupole moment (field-independent basis, Debye-Ang):
   XX=              3.9039   YY=             -2.5493   ZZ=             -1.3547
   XY=             -4.2348   XZ=             -1.1645   YZ=              2.8885
 Octapole moment (field-independent basis, Debye-Ang**2):
  XXX=            -44.3321  YYY=              2.1379  ZZZ=             -2.4495  XYY=              5.9167
  XXY=             29.4958  XXZ=             -1.2474  XZZ=            -13.6323  YZZ=              4.3769
  YYZ=             -7.1758  XYZ=              0.3097
 Hexadecapole moment (field-independent basis, Debye-Ang**3):
 XXXX=          -2313.9103 YYYY=           -448.2192 ZZZZ=           -218.9001 XXXY=            -90.7177
 XXXZ=            -84.4001 YYYX=             -4.5769 YYYZ=             -2.7243 ZZZX=              1.7230
 ZZZY=             -6.2526 XXYY=           -537.7676 XXZZ=           -506.2360 YYZZ=           -103.6111
 XXYZ=             47.7715 YYXZ=              9.7061 ZZXY=             -7.9373
 N-N= 6.642089685154D+02 E-N=-2.620305401878D+03  KE= 5.495273343043D+02
 Calling FoFJK, ICntrl=      2127 FMM=F ISym2X=0 I1Cent= 0 IOpClX= 0 NMat=1 NMatS=1 NMatT=0.
 ***** Axes restored to original set *****
 -------------------------------------------------------------------
 Center     Atomic                   Forces (Hartrees/Bohr)
 Number     Number              X              Y              Z
 -------------------------------------------------------------------
      1        6           0.029753842   -0.011462878   -0.015213898
      2        1          -0.024567708    0.003709947   -0.002520503
      3        7           0.011374732    0.018891853   -0.004434111
      4        1          -0.004889579   -0.009383570    0.009824797
      5        1          -0.002085424   -0.009891805   -0.011204945
      6        6           0.003520074    0.070685832   -0.027009241
      7        8           0.009543540   -0.070277403   -0.005898983
      8        8          -0.018895717   -0.009118151    0.055208965
      9        1          -0.000091897    0.015997387   -0.004308944
     10        6          -0.014950070   -0.026413007    0.012745309
     11        1          -0.006838104    0.013871085   -0.002004020
     12        1           0.015289598    0.005149421   -0.002357370
     13        6           0.003989140    0.012267977   -0.010197992
     14        6          -0.014875702   -0.002507205    0.012776624
     15        6           0.010570353   -0.013240705    0.011076500
     16        6          -0.012381487    0.008908783   -0.006533191
     17        1           0.010648697    0.000407839   -0.005087149
     18        6           0.014737883   -0.000870696   -0.007195605
     19        1          -0.008346973    0.007739347   -0.005079272
     20        6           0.003373195    0.008031171   -0.012456055
     21        1           0.008635889   -0.006823121    0.005021807
     22        1          -0.011019198    0.000644688    0.004962213
     23        1          -0.002495084   -0.006316788    0.009885062
 -------------------------------------------------------------------
 Cartesian Forces:  Max     0.070685832 RMS     0.017672986

 GradGradGradGradGradGradGradGradGradGradGradGradGradGradGradGradGradGrad
 Berny optimization.
 FormGI is forming the generalized inverse of G from B-inverse, IUseBI=4.
 Internal  Forces:  Max     0.070955438 RMS     0.010429123
 Search for a local minimum.
 Step number   1 out of a maximum of  123 on scan point     1 out of    19
 All quantities printed in internal units (Hartrees-Bohrs-Radians)
 Mixed Optimization -- RFO/linear search
 Second derivative matrix not updated -- first step.
 ITU=  0
     Eigenvalues ---    0.00237   0.00237   0.00501   0.00766   0.00987
     Eigenvalues ---    0.01295   0.02070   0.02070   0.02070   0.02070
     Eigenvalues ---    0.02070   0.02070   0.02070   0.02070   0.03260
     Eigenvalues ---    0.04248   0.04828   0.05056   0.05410   0.06194
     Eigenvalues ---    0.08669   0.11053   0.16000   0.16000   0.16000
     Eigenvalues ---    0.16000   0.16000   0.16000   0.16000   0.16000
     Eigenvalues ---    0.16855   0.17980   0.21983   0.22000   0.22000
     Eigenvalues ---    0.23485   0.25000   0.25000   0.25000   0.28519
     Eigenvalues ---    0.28519   0.28519   0.35740   0.37230   0.37230
     Eigenvalues ---    0.37230   0.37230   0.37230   0.37230   0.37230
     Eigenvalues ---    0.37230   0.40989   0.41268   0.41459   0.45389
     Eigenvalues ---    0.45389   0.45389   0.45389   0.47688   0.47688
     Eigenvalues ---    0.55473   0.802091000.000001000.000001000.00000
     Eigenvalues --- 1000.000001000.000001000.000001000.000001000.00000
     Eigenvalues --- 1000.000001000.000001000.000001000.000001000.00000
     Eigenvalues --- 1000.000001000.000001000.000001000.000001000.00000
     Eigenvalues --- 1000.000001000.000001000.000001000.000001000.00000
     Eigenvalues --- 1000.000001000.000001000.000001000.000001000.00000
     Eigenvalues --- 1000.000001000.000001000.000001000.000001000.00000
     Eigenvalues --- 1000.000001000.000001000.000001000.000001000.00000
     Eigenvalues --- 1000.000001000.000001000.000001000.000001000.00000
     Eigenvalues --- 1000.000001000.000001000.000001000.000001000.00000
     Eigenvalues --- 1000.000001000.000001000.00000
 RFO step:  Lambda=-2.96684955D-02 EMin= 2.36824234D-03
 Linear search not attempted -- first point.
 Iteration  1 RMS(Cart)=  0.07606747 RMS(Int)=  0.00300305
 Iteration  2 RMS(Cart)=  0.00338030 RMS(Int)=  0.00027088
 Iteration  3 RMS(Cart)=  0.00002420 RMS(Int)=  0.00027007
 Iteration  4 RMS(Cart)=  0.00000000 RMS(Int)=  0.00027007
 Iteration  1 RMS(Cart)=  0.00001398 RMS(Int)=  0.00000563
 Iteration  2 RMS(Cart)=  0.00000873 RMS(Int)=  0.00000626
 Iteration  3 RMS(Cart)=  0.00000546 RMS(Int)=  0.00000716
 Iteration  4 RMS(Cart)=  0.00000341 RMS(Int)=  0.00000787
 Iteration  5 RMS(Cart)=  0.00000213 RMS(Int)=  0.00000834
 Iteration  6 RMS(Cart)=  0.00000133 RMS(Int)=  0.00000866
 Iteration  7 RMS(Cart)=  0.00000083 RMS(Int)=  0.00000886
 Variable       Old X    -DE/DX   Delta X   Delta X   Delta X     New X
                                 (Linear)    (Quad)   (Total)
    R1        2.02201   0.02288   0.00000   0.05692   0.05692   2.07893
    R2        2.77790   0.00276   0.00000   0.00713   0.00713   2.78502
    R3        2.91018  -0.01197   0.00000  -0.03803  -0.03803   2.87215
    R4        2.91018   0.00426   0.00000   0.01353   0.01353   2.92371
    R5        1.88973   0.01410   0.00000   0.02783   0.02783   1.91756
    R6        1.88973   0.01492   0.00000   0.02945   0.02945   1.91917
    R7        2.37803  -0.07096   0.00000  -0.08531  -0.08531   2.29272
    R8        2.70231  -0.05147   0.00000  -0.11709  -0.11709   2.58521
    R9        1.81414   0.01187   0.00000   0.02030   0.02030   1.83444
   R10        2.02201   0.01533   0.00000   0.03814   0.03814   2.06015
   R11        2.02201   0.01608   0.00000   0.04000   0.04000   2.06201
   R12        2.91018  -0.00735   0.00000  -0.02333  -0.02333   2.88685
   R13        2.64826   0.00027   0.00000   0.00085   0.00086   2.64913
   R14        2.64826  -0.00092   0.00000  -0.00169  -0.00168   2.64659
   R15        2.64826  -0.00322   0.00000  -0.00658  -0.00658   2.64168
   R16        2.02201   0.01177   0.00000   0.02929   0.02929   2.05129
   R17        2.64826  -0.00404   0.00000  -0.00843  -0.00843   2.63984
   R18        2.02201   0.01245   0.00000   0.03096   0.03096   2.05297
   R19        2.64826  -0.00499   0.00000  -0.01052  -0.01054   2.63773
   R20        2.02201   0.01210   0.00000   0.03009   0.03009   2.05210
   R21        2.64826  -0.00477   0.00000  -0.01016  -0.01017   2.63809
   R22        2.02201   0.01210   0.00000   0.03010   0.03010   2.05211
   R23        2.02201   0.01199   0.00000   0.02983   0.02983   2.05184
    A1        1.91063   0.00404   0.00000   0.04991   0.04980   1.96044
    A2        1.91063  -0.00257   0.00000  -0.04350  -0.04383   1.86680
    A3        1.91063  -0.00275   0.00000  -0.01974  -0.02146   1.88917
    A4        1.91063  -0.00318   0.00000  -0.01240  -0.01207   1.89856
    A5        1.91063   0.00496   0.00000   0.03524   0.03496   1.94560
    A6        1.91063  -0.00049   0.00000  -0.00950  -0.00974   1.90089
    A7        1.91063  -0.00033   0.00000  -0.00423  -0.00422   1.90642
    A8        1.91063   0.00301   0.00000   0.01339   0.01340   1.92403
    A9        1.91063  -0.00220   0.00000  -0.01658  -0.01655   1.89408
   A10        2.09440   0.01953   0.00000   0.06984   0.06954   2.16393
   A11        2.09440  -0.02714   0.00000  -0.09704  -0.09733   1.99707
   A12        2.09440   0.00761   0.00000   0.02720   0.02692   2.12131
   A13        1.91063  -0.01474   0.00000  -0.07773  -0.07773   1.83290
   A14        1.91063  -0.00453   0.00000  -0.01961  -0.01997   1.89066
   A15        1.91063  -0.00408   0.00000  -0.02206  -0.02273   1.88791
   A16        1.91063   0.01201   0.00000   0.05363   0.05354   1.96418
   A17        1.91063   0.00083   0.00000  -0.01445  -0.01497   1.89566
   A18        1.91063  -0.00268   0.00000  -0.00377  -0.00358   1.90706
   A19        1.91063  -0.00154   0.00000   0.00627   0.00641   1.91704
   A20        2.09440   0.00485   0.00000   0.01707   0.01705   2.11144
   A21        2.09440   0.00101   0.00000   0.00333   0.00331   2.09771
   A22        2.09440  -0.00585   0.00000  -0.02040  -0.02038   2.07401
   A23        2.09440   0.00237   0.00000   0.00982   0.00983   2.10422
   A24        2.09440  -0.00201   0.00000  -0.00927  -0.00927   2.08512
   A25        2.09440  -0.00036   0.00000  -0.00055  -0.00056   2.09384
   A26        2.09440   0.00294   0.00000   0.01162   0.01164   2.10604
   A27        2.09440  -0.00188   0.00000  -0.00798  -0.00799   2.08641
   A28        2.09440  -0.00106   0.00000  -0.00364  -0.00366   2.09074
   A29        2.09440   0.00077   0.00000   0.00242   0.00241   2.09680
   A30        2.09440  -0.00047   0.00000  -0.00167  -0.00167   2.09273
   A31        2.09440  -0.00030   0.00000  -0.00075  -0.00074   2.09365
   A32        2.09440   0.00076   0.00000   0.00190   0.00189   2.09628
   A33        2.09440  -0.00044   0.00000  -0.00125  -0.00124   2.09315
   A34        2.09440  -0.00032   0.00000  -0.00065  -0.00065   2.09375
   A35        2.09440  -0.00099   0.00000  -0.00536  -0.00538   2.08901
   A36        2.09440   0.00054   0.00000   0.00291   0.00292   2.09732
   A37        2.09440   0.00045   0.00000   0.00244   0.00245   2.09685
    D1       -1.04720  -0.00035   0.00000   0.00680   0.00604  -1.04116
    D2        1.04720  -0.00141   0.00000  -0.00790  -0.00868   1.03852
    D3        3.14159   0.00227   0.00000   0.03711   0.03728  -3.10431
    D4       -1.04720   0.00121   0.00000   0.02241   0.02257  -1.02463
    D5        1.04720   0.00178   0.00000   0.03475   0.03535   1.08255
    D6        3.14159   0.00072   0.00000   0.02005   0.02064  -3.12095
    D7        1.57080  -0.00279   0.00000  -0.04378  -0.04385   1.52694
    D8       -1.57080  -0.00126   0.00000   0.00026   0.00047  -1.57033
    D9       -2.61799  -0.00137   0.00000  -0.01689  -0.01690  -2.63490
   D10        0.52360   0.00016   0.00000   0.02714   0.02742   0.55102
   D11       -0.52360   0.00245   0.00000   0.01285   0.01250  -0.51109
   D12        2.61799   0.00398   0.00000   0.05689   0.05683   2.67482
   D13       -1.04720   0.00150   0.00000   0.01302   0.01293  -1.03427
   D14        3.14159   0.00575   0.00000   0.05623   0.05561  -3.08598
   D15        1.04720   0.00279   0.00000   0.02923   0.02894   1.07614
   D16        3.14159  -0.00480   0.00000  -0.05759  -0.05719   3.08440
   D17        1.04720  -0.00054   0.00000  -0.01438  -0.01451   1.03269
   D18       -1.04720  -0.00351   0.00000  -0.04138  -0.04118  -1.08838
   D19        1.04720  -0.00364   0.00000  -0.05817  -0.05775   0.98945
   D20       -1.04720   0.00062   0.00000  -0.01495  -0.01506  -1.06226
   D21        3.14159  -0.00235   0.00000  -0.04195  -0.04174   3.09986
   D22       -2.61799  -0.00780   0.00000  -0.18711  -0.18665  -2.80464
   D23        0.52360  -0.00627   0.00000  -0.14307  -0.14353   0.38007
   D24        1.57080   0.00111   0.00000   0.00000   0.00000   1.57080
   D25       -1.57080   0.00099   0.00000   0.00735   0.00746  -1.56334
   D26       -2.61799   0.00127   0.00000   0.00652   0.00660  -2.61140
   D27        0.52360   0.00115   0.00000   0.01386   0.01405   0.53765
   D28       -0.52360  -0.00030   0.00000  -0.00966  -0.01000  -0.53360
   D29        2.61799  -0.00042   0.00000  -0.00231  -0.00255   2.61545
   D30       -3.14159   0.00018   0.00000   0.00886   0.00887  -3.13272
   D31       -0.00000   0.00023   0.00000   0.01043   0.01043   0.01043
   D32        0.00000   0.00031   0.00000   0.00151   0.00151   0.00152
   D33        3.14159   0.00036   0.00000   0.00309   0.00308  -3.13852
   D34       -3.14159  -0.00019   0.00000  -0.00891  -0.00887   3.13272
   D35        0.00000  -0.00029   0.00000  -0.01161  -0.01157  -0.01156
   D36        0.00000  -0.00031   0.00000  -0.00157  -0.00158  -0.00158
   D37       -3.14159  -0.00041   0.00000  -0.00426  -0.00427   3.13732
   D38       -0.00000  -0.00014   0.00000  -0.00088  -0.00089  -0.00090
   D39        3.14159   0.00007   0.00000   0.00251   0.00250  -3.13909
   D40        3.14159  -0.00019   0.00000  -0.00246  -0.00246   3.13913
   D41        0.00000   0.00002   0.00000   0.00093   0.00093   0.00093
   D42       -0.00000   0.00014   0.00000   0.00100   0.00102   0.00101
   D43       -3.14159  -0.00008   0.00000  -0.00278  -0.00277   3.13882
   D44        3.14159   0.00025   0.00000   0.00369   0.00371  -3.13788
   D45        0.00000   0.00003   0.00000  -0.00009  -0.00008  -0.00008
   D46        0.00000  -0.00003   0.00000   0.00031   0.00030   0.00031
   D47       -3.14159   0.00019   0.00000   0.00337   0.00337  -3.13822
   D48       -3.14159  -0.00023   0.00000  -0.00308  -0.00309   3.13850
   D49       -0.00000  -0.00002   0.00000  -0.00002  -0.00003  -0.00003
   D50       -0.00000   0.00003   0.00000  -0.00037  -0.00036  -0.00036
   D51       -3.14159  -0.00019   0.00000  -0.00343  -0.00343   3.13816
   D52        3.14159   0.00025   0.00000   0.00341   0.00343  -3.13817
   D53       -0.00000   0.00003   0.00000   0.00035   0.00036   0.00036
         Item               Value     Threshold  Converged?
 Maximum Force            0.070955     0.000450     NO 
 RMS     Force            0.010474     0.000300     NO 
 Maximum Displacement     0.356863     0.001800     NO 
 RMS     Displacement     0.076599     0.001200     NO 
 Predicted change in Energy=-1.705717D-02
 GradGradGradGradGradGradGradGradGradGradGradGradGradGradGradGradGradGrad

                          Input orientation:                          
 ---------------------------------------------------------------------
 Center     Atomic      Atomic             Coordinates (Angstroms)
 Number     Number       Type             X           Y           Z
 ---------------------------------------------------------------------
      1          6           0       -0.848977    2.209426   -0.037358
      2          1           0       -1.923155    1.973814   -0.067291
      3          7           0       -0.008427    1.001668   -0.119814
      4          1           0       -0.224609    0.390122    0.660538
      5          1           0       -0.196077    0.501325   -0.983441
      6          6           0       -0.555231    3.092940   -1.238664
      7          8           0       -0.661073    4.301561   -1.233661
      8          8           0       -0.205431    2.409859   -2.371167
      9          1           0        0.242150    3.064172   -2.931426
     10          6           0       -0.564651    3.010181    1.255568
     11          1           0       -1.167888    3.918052    1.236149
     12          1           0        0.489404    3.292341    1.256176
     13          6           0       -0.889503    2.216085    2.519533
     14          6           0        0.079614    1.411913    3.135424
     15          6           0       -2.172438    2.275179    3.078124
     16          6           0       -0.230104    0.680602    4.285829
     17          1           0        1.078172    1.360748    2.712848
     18          6           0       -2.483380    1.544870    4.227649
     19          1           0       -2.931220    2.897847    2.612545
     20          6           0       -1.512156    0.746086    4.833899
     21          1           0        0.529524    0.062884    4.755532
     22          1           0       -3.481298    1.601558    4.652137
     23          1           0       -1.752353    0.180718    5.729218
 ---------------------------------------------------------------------
                    Distance matrix (angstroms):
                    1          2          3          4          5
     1  C    0.000000
     2  H    1.100121   0.000000
     3  N    1.473772   2.148024   0.000000
     4  H    2.046159   2.433696   1.014728   0.000000
     5  H    2.058874   2.447520   1.015583   1.647984   0.000000
     6  C    1.519875   2.120324   2.433976   3.319866   2.628802
     7  O    2.417328   2.893385   3.543430   4.367820   3.836747
     8  O    2.429196   2.906640   2.662781   3.642931   2.359740
     9  H    3.208859   3.752425   3.495979   4.502290   3.248826
    10  C    1.547161   2.160913   2.497036   2.708210   3.382805
    11  H    2.154745   2.459561   3.418813   3.696944   4.188678
    12  H    2.153416   3.051314   2.718155   3.047536   3.643562
    13  C    2.557221   2.796209   3.035993   2.689254   3.961322
    14  C    3.400714   3.818926   3.282168   2.694748   4.227319
    15  C    3.385572   3.169636   4.065904   3.632107   4.852718
    16  C    4.627122   4.846491   4.422886   3.636914   5.272430
    17  H    3.463783   4.136784   3.055096   2.617505   4.003109
    18  C    4.615538   4.352511   5.031987   4.377187   5.785862
    19  H    3.439716   3.008580   4.427640   4.174298   5.114239
    20  C    5.129358   5.069309   5.183222   4.381943   5.969373
    21  H    5.429522   5.738197   4.993967   4.176694   5.801254
    22  H    5.412021   4.983912   5.932303   5.292113   6.615356
    23  H    6.179413   6.069916   6.158443   5.298053   6.898158
                    6          7          8          9         10
     6  C    0.000000
     7  O    1.213257   0.000000
     8  O    1.368037   2.253901   0.000000
     9  H    1.871387   2.286778   0.970744   0.000000
    10  C    2.495623   2.805926   3.693594   4.264360   0.000000
    11  H    2.679712   2.550275   4.026624   4.481741   1.090184
    12  H    2.712056   2.922569   3.797261   4.201096   1.091168
    13  C    3.873585   4.299750   4.942110   5.631416   1.527653
    14  C    4.728798   5.290329   5.603543   6.289916   2.550176
    15  C    4.681746   4.998193   5.795000   6.524372   2.539078
    16  C    6.036979   6.615274   6.877975   7.615327   3.836840
    17  H    4.613345   5.219989   5.347475   5.954697   2.746482
    18  C    5.999571   6.383263   7.034318   7.809555   3.829089
    19  H    4.529370   4.681589   5.701355   6.390114   2.730321
    20  C    6.580232   7.083856   7.509237   8.291645   4.339163
    21  H    6.803553   7.433326   7.539118   8.257096   4.704629
    22  H    6.744451   7.063023   7.791756   8.574015   4.693370
    23  H    7.646275   8.164186   8.542733   9.343399   5.424946
                   11         12         13         14         15
    11  H    0.000000
    12  H    1.771591   0.000000
    13  C    2.149712   2.157727   0.000000
    14  C    3.382933   2.689891   1.401857   0.000000
    15  C    2.664774   3.382236   1.400514   2.412520   0.000000
    16  C    4.545445   4.064194   2.431526   1.397918   2.788170
    17  H    3.710152   2.489898   2.154232   1.085498   3.396480
    18  C    4.038760   4.552006   2.430768   2.789189   1.396941
    19  H    2.458582   3.700816   2.154544   3.398018   1.086384
    20  C    4.808710   4.825947   2.811562   2.421131   2.420091
    21  H    5.489042   4.761985   3.413152   2.155702   3.874087
    22  H    4.731488   5.491610   3.412190   3.875110   2.155086
    23  H    5.873409   5.892010   3.897347   3.405836   3.404635
                   16         17         18         19         20
    16  C    0.000000
    17  H    2.156027   0.000000
    18  C    2.414042   3.874684   0.000000
    19  H    3.874543   4.295109   2.153989   0.000000
    20  C    1.395825   3.403889   1.396020   3.402680   0.000000
    21  H    1.085924   2.481537   3.398902   4.960460   2.154383
    22  H    3.398912   4.960604   1.085930   2.478484   2.154621
    23  H    2.156502   4.301492   2.156391   4.299555   1.085787
                   21         22         23
    21  H    0.000000
    22  H    4.297081   0.000000
    23  H    2.483730   2.483575   0.000000
 Stoichiometry    C9H11NO2
 Framework group  C1[X(C9H11NO2)]
 Deg. of freedom    63
 Full point group                 C1      NOp   1
 Largest Abelian subgroup         C1      NOp   1
 Largest concise Abelian subgroup C1      NOp   1
                         Standard orientation:                         
 ---------------------------------------------------------------------
 Center     Atomic      Atomic             Coordinates (Angstroms)
 Number     Number       Type             X           Y           Z
 ---------------------------------------------------------------------
      1          6           0       -1.379675    0.048618   -0.386563
      2          1           0       -1.171825   -0.475788   -1.331053
      3          7           0       -1.241341    1.510202   -0.515566
      4          1           0       -0.294110    1.732086   -0.803999
      5          1           0       -1.883707    1.863211   -1.218530
      6          6           0       -2.815078   -0.275327   -0.006173
      7          8           0       -3.141916   -1.247001    0.642686
      8          8           0       -3.743005    0.598092   -0.503785
      9          1           0       -4.530875    0.469743    0.048602
     10          6           0       -0.433420   -0.516212    0.699382
     11          1           0       -0.618786   -1.586467    0.792618
     12          1           0       -0.679230   -0.036231    1.647983
     13          6           0        1.040294   -0.286807    0.368830
     14          6           0        1.701976    0.874893    0.790532
     15          6           0        1.751942   -1.237809   -0.373189
     16          6           0        3.047953    1.080867    0.474154
     17          1           0        1.161085    1.617502    1.368697
     18          6           0        3.096990   -1.033279   -0.690139
     19          1           0        1.251598   -2.144155   -0.702464
     20          6           0        3.747682    0.126927   -0.266591
     21          1           0        3.550635    1.983584    0.808286
     22          1           0        3.637996   -1.779817   -1.263931
     23          1           0        4.793985    0.284959   -0.509920
 ---------------------------------------------------------------------
 Rotational constants (GHZ):           2.5197227           0.4447709           0.4114206
 Standard basis: 6-31G(d) (6D, 7F)
 There are   202 symmetry adapted cartesian basis functions of A   symmetry.
 There are   202 symmetry adapted basis functions of A   symmetry.
   202 basis functions,   380 primitive gaussians,   202 cartesian basis functions
    44 alpha electrons       44 beta electrons
       nuclear repulsion energy       665.6800404750 Hartrees.
 NAtoms=   23 NActive=   23 NUniq=   23 SFac= 1.00D+00 NAtFMM=   60 NAOKFM=F Big=F
 Integral buffers will be    131072 words long.
 Raffenetti 2 integral format.
 Two-electron integral symmetry is turned on.
 One-electron integrals computed using PRISM.
 NBasis=   202 RedAO= T EigKep=  4.70D-04  NBF=   202
 NBsUse=   202 1.00D-06 EigRej= -1.00D+00 NBFU=   202
 Initial guess from the checkpoint file:  "phe.chk"
 B after Tr=    -0.000000    0.000000   -0.000000
         Rot=    0.999992    0.003262   -0.001909   -0.001074 Ang=   0.45 deg.
 ExpMin= 1.61D-01 ExpMax= 5.48D+03 ExpMxC= 8.25D+02 IAcc=3 IRadAn=         5 AccDes= 0.00D+00
 Harris functional with IExCor=  402 and IRadAn=       5 diagonalized for initial guess.
 HarFok:  IExCor=  402 AccDes= 0.00D+00 IRadAn=         5 IDoV= 1 UseB2=F ITyADJ=14
 ICtDFT=  3500011 ScaDFX=  1.000000  1.000000  1.000000  1.000000
 FoFCou: FMM=F IPFlag=           0 FMFlag=      100000 FMFlg1=           0
         NFxFlg=           0 DoJE=T BraDBF=F KetDBF=T FulRan=T
         wScrn=  0.000000 ICntrl=       500 IOpCl=  0 I1Cent=   200000004 NGrid=           0
         NMat0=    1 NMatS0=      1 NMatT0=    0 NMatD0=    1 NMtDS0=    0 NMtDT0=    0
 Petite list used in FoFCou.
 Requested convergence on RMS density matrix=1.00D-08 within 128 cycles.
 Requested convergence on MAX density matrix=1.00D-06.
 Requested convergence on             energy=1.00D-06.
 No special actions if energy rises.
 Integral accuracy reduced to 1.0D-05 until final iterations.
 Initial convergence to 1.0D-05 achieved.  Increase integral accuracy.
 SCF Done:  E(RB3LYP) =  -554.782550441     A.U. after   13 cycles
            NFock= 13  Conv=0.58D-08     -V/T= 2.0094
 Calling FoFJK, ICntrl=      2127 FMM=F ISym2X=0 I1Cent= 0 IOpClX= 0 NMat=1 NMatS=1 NMatT=0.
 ***** Axes restored to original set *****
 -------------------------------------------------------------------
 Center     Atomic                   Forces (Hartrees/Bohr)
 Number     Number              X              Y              Z
 -------------------------------------------------------------------
      1        6           0.008094795   -0.009328327   -0.003280327
      2        1          -0.004597806    0.001641501   -0.000375629
      3        7           0.000950601    0.007185411    0.003685084
      4        1          -0.001796198   -0.002185374    0.000960026
      5        1          -0.000591616   -0.000406576   -0.000041110
      6        6          -0.006347521    0.008903701   -0.007170424
      7        8           0.004895600   -0.003243944   -0.000092834
      8        8           0.004529596   -0.002206989    0.013734805
      9        1          -0.004760331    0.003199659   -0.006911678
     10        6          -0.003862482   -0.010434100    0.006667106
     11        1           0.000704045    0.002381608   -0.001934873
     12        1           0.001798093    0.001651998   -0.000629661
     13        6           0.002198118    0.004428505   -0.006975363
     14        6          -0.002054116   -0.001114036    0.002491589
     15        6           0.000156748   -0.002699317    0.002671899
     16        6          -0.000394212    0.000770630   -0.001219612
     17        1           0.001034458    0.000279578   -0.000497365
     18        6           0.000487930    0.000495449   -0.001301858
     19        1          -0.000615364    0.000870836   -0.000303856
     20        6           0.000280403    0.000110562   -0.000408625
     21        1           0.000744227   -0.000269872    0.000166767
     22        1          -0.000728748    0.000270719    0.000168399
     23        1          -0.000126222   -0.000301624    0.000597542
 -------------------------------------------------------------------
 Cartesian Forces:  Max     0.013734805 RMS     0.003911695

 GradGradGradGradGradGradGradGradGradGradGradGradGradGradGradGradGradGrad
 Berny optimization.
 Using GEDIIS/GDIIS optimizer.
 FormGI is forming the generalized inverse of G from B-inverse, IUseBI=4.
 Internal  Forces:  Max     0.006972749 RMS     0.002015077
 Search for a local minimum.
 Step number   2 out of a maximum of  123 on scan point     1 out of    19
 All quantities printed in internal units (Hartrees-Bohrs-Radians)
 Mixed Optimization -- RFO/linear search
 Update second derivatives using D2CorX and points    1    2
 DE= -1.78D-02 DEPred=-1.71D-02 R= 1.04D+00
 TightC=F SS=  1.41D+00  RLast= 3.88D-01 DXNew= 5.0454D-01 1.1638D+00
 Trust test= 1.04D+00 RLast= 3.88D-01 DXMaxT set to 5.05D-01
 ITU=  1  0
 Use linear search instead of GDIIS.
     Eigenvalues ---    0.00237   0.00237   0.00501   0.00767   0.00969
     Eigenvalues ---    0.01224   0.02070   0.02070   0.02070   0.02070
     Eigenvalues ---    0.02070   0.02070   0.02070   0.02071   0.03001
     Eigenvalues ---    0.04242   0.04673   0.05178   0.05379   0.06268
     Eigenvalues ---    0.09077   0.11500   0.15992   0.16000   0.16000
     Eigenvalues ---    0.16000   0.16000   0.16000   0.16000   0.16336
     Eigenvalues ---    0.17349   0.18007   0.22000   0.22000   0.22276
     Eigenvalues ---    0.23241   0.23954   0.24987   0.25028   0.28311
     Eigenvalues ---    0.28519   0.29093   0.35367   0.37061   0.37230
     Eigenvalues ---    0.37230   0.37230   0.37230   0.37230   0.37230
     Eigenvalues ---    0.37696   0.40805   0.41220   0.41489   0.45358
     Eigenvalues ---    0.45389   0.45389   0.45462   0.47581   0.47821
     Eigenvalues ---    0.55264   0.804921000.000001000.000001000.00000
     Eigenvalues --- 1000.000001000.000001000.000001000.000001000.00000
     Eigenvalues --- 1000.000001000.000001000.000001000.000001000.00000
     Eigenvalues --- 1000.000001000.000001000.000001000.000001000.00000
     Eigenvalues --- 1000.000001000.000001000.000001000.000001000.00000
     Eigenvalues --- 1000.000001000.000001000.000001000.000001000.00000
     Eigenvalues --- 1000.000001000.000001000.000001000.000001000.00000
     Eigenvalues --- 1000.000001000.000001000.000001000.000001000.00000
     Eigenvalues --- 1000.000001000.000001000.000001000.000001000.00000
     Eigenvalues --- 1000.000001000.000001000.000001000.000001000.00000
     Eigenvalues --- 1000.000001000.000001000.00000
 RFO step:  Lambda=-6.20538005D-03 EMin= 2.36531517D-03
 Quartic linear search produced a step of  0.18668.
 Iteration  1 RMS(Cart)=  0.05488094 RMS(Int)=  0.02364387
 Iteration  2 RMS(Cart)=  0.02623768 RMS(Int)=  0.00243262
 Iteration  3 RMS(Cart)=  0.00239573 RMS(Int)=  0.00010154
 Iteration  4 RMS(Cart)=  0.00001108 RMS(Int)=  0.00010132
 Iteration  5 RMS(Cart)=  0.00000000 RMS(Int)=  0.00010132
 Iteration  1 RMS(Cart)=  0.00000441 RMS(Int)=  0.00000177
 Iteration  2 RMS(Cart)=  0.00000275 RMS(Int)=  0.00000196
 Iteration  3 RMS(Cart)=  0.00000172 RMS(Int)=  0.00000225
 Iteration  4 RMS(Cart)=  0.00000107 RMS(Int)=  0.00000247
 Iteration  5 RMS(Cart)=  0.00000067 RMS(Int)=  0.00000262
 Variable       Old X    -DE/DX   Delta X   Delta X   Delta X     New X
                                 (Linear)    (Quad)   (Total)
    R1        2.07893   0.00415   0.01063   0.00764   0.01827   2.09719
    R2        2.78502  -0.00484   0.00133  -0.01603  -0.01470   2.77033
    R3        2.87215   0.00389  -0.00710   0.01903   0.01193   2.88408
    R4        2.92371  -0.00234   0.00253  -0.01055  -0.00802   2.91569
    R5        1.91756   0.00244   0.00520   0.00350   0.00870   1.92626
    R6        1.91917   0.00034   0.00550  -0.00164   0.00385   1.92303
    R7        2.29272  -0.00366  -0.01593   0.00136  -0.01457   2.27816
    R8        2.58521  -0.00620  -0.02186  -0.00711  -0.02897   2.55624
    R9        1.83444   0.00395   0.00379   0.00649   0.01028   1.84472
   R10        2.06015   0.00163   0.00712   0.00160   0.00872   2.06887
   R11        2.06201   0.00216   0.00747   0.00308   0.01054   2.07255
   R12        2.88685  -0.00550  -0.00436  -0.01962  -0.02397   2.86287
   R13        2.64913   0.00026   0.00016   0.00057   0.00074   2.64986
   R14        2.64659   0.00104  -0.00031   0.00278   0.00247   2.64906
   R15        2.64168  -0.00111  -0.00123  -0.00228  -0.00351   2.63817
   R16        2.05129   0.00113   0.00547   0.00087   0.00634   2.05763
   R17        2.63984  -0.00115  -0.00157  -0.00214  -0.00371   2.63612
   R18        2.05297   0.00106   0.00578   0.00050   0.00628   2.05925
   R19        2.63773  -0.00003  -0.00197   0.00080  -0.00118   2.63655
   R20        2.05210   0.00075   0.00562  -0.00038   0.00524   2.05734
   R21        2.63809   0.00018  -0.00190   0.00133  -0.00058   2.63752
   R22        2.05211   0.00075   0.00562  -0.00037   0.00525   2.05736
   R23        2.05184   0.00068   0.00557  -0.00057   0.00500   2.05684
    A1        1.96044   0.00194   0.00930   0.01058   0.01977   1.98020
    A2        1.86680  -0.00285  -0.00818  -0.01864  -0.02708   1.83973
    A3        1.88917   0.00019  -0.00401  -0.01341  -0.01768   1.87149
    A4        1.89856   0.00356  -0.00225   0.03531   0.03316   1.93172
    A5        1.94560  -0.00459   0.00653  -0.02815  -0.02193   1.92367
    A6        1.90089   0.00182  -0.00182   0.01489   0.01314   1.91403
    A7        1.90642  -0.00043  -0.00079  -0.00730  -0.00816   1.89825
    A8        1.92403  -0.00049   0.00250  -0.00966  -0.00723   1.91680
    A9        1.89408  -0.00048  -0.00309  -0.01104  -0.01429   1.87979
   A10        2.16393   0.00486   0.01298   0.01553   0.02835   2.19228
   A11        1.99707  -0.00686  -0.01817  -0.02094  -0.03927   1.95780
   A12        2.12131   0.00199   0.00503   0.00679   0.01166   2.13297
   A13        1.83290   0.00358  -0.01451   0.03381   0.01930   1.85220
   A14        1.89066  -0.00106  -0.00373  -0.00749  -0.01140   1.87926
   A15        1.88791   0.00005  -0.00424  -0.00096  -0.00538   1.88253
   A16        1.96418  -0.00026   0.01000  -0.00413   0.00585   1.97003
   A17        1.89566  -0.00086  -0.00279  -0.01203  -0.01507   1.88059
   A18        1.90706   0.00154  -0.00067   0.01805   0.01745   1.92450
   A19        1.91704   0.00051   0.00120   0.00573   0.00697   1.92401
   A20        2.11144   0.00021   0.00318  -0.00070   0.00247   2.11391
   A21        2.09771   0.00127   0.00062   0.00546   0.00605   2.10376
   A22        2.07401  -0.00148  -0.00380  -0.00481  -0.00860   2.06541
   A23        2.10422   0.00087   0.00183   0.00318   0.00502   2.10924
   A24        2.08512  -0.00069  -0.00173  -0.00290  -0.00463   2.08049
   A25        2.09384  -0.00017  -0.00010  -0.00028  -0.00039   2.09345
   A26        2.10604   0.00084   0.00217   0.00312   0.00530   2.11134
   A27        2.08641  -0.00047  -0.00149  -0.00167  -0.00317   2.08324
   A28        2.09074  -0.00037  -0.00068  -0.00146  -0.00215   2.08859
   A29        2.09680   0.00012   0.00045   0.00012   0.00057   2.09737
   A30        2.09273  -0.00037  -0.00031  -0.00214  -0.00245   2.09028
   A31        2.09365   0.00024  -0.00014   0.00201   0.00187   2.09552
   A32        2.09628  -0.00005   0.00035  -0.00049  -0.00014   2.09614
   A33        2.09315  -0.00023  -0.00023  -0.00149  -0.00172   2.09143
   A34        2.09375   0.00028  -0.00012   0.00197   0.00185   2.09560
   A35        2.08901  -0.00030  -0.00100  -0.00113  -0.00214   2.08687
   A36        2.09732   0.00014   0.00055   0.00050   0.00105   2.09837
   A37        2.09685   0.00015   0.00046   0.00062   0.00108   2.09793
    D1       -1.04116   0.00146   0.00113   0.04001   0.04125  -0.99991
    D2        1.03852   0.00031  -0.00162   0.01613   0.01471   1.05323
    D3       -3.10431   0.00150   0.00696   0.03380   0.04048  -3.06383
    D4       -1.02463   0.00035   0.00421   0.00992   0.01394  -1.01069
    D5        1.08255  -0.00024   0.00660   0.00978   0.01641   1.09896
    D6       -3.12095  -0.00138   0.00385  -0.01410  -0.01013  -3.13108
    D7        1.52694  -0.00053  -0.00819   0.06432   0.05635   1.58329
    D8       -1.57033  -0.00052   0.00009   0.02907   0.02935  -1.54098
    D9       -2.63490   0.00215  -0.00316   0.08609   0.08263  -2.55226
   D10        0.55102   0.00216   0.00512   0.05083   0.05563   0.60665
   D11       -0.51109  -0.00016   0.00233   0.08245   0.08490  -0.42620
   D12        2.67482  -0.00015   0.01061   0.04719   0.05790   2.73272
   D13       -1.03427  -0.00044   0.00241  -0.01965  -0.01705  -1.05132
   D14       -3.08598   0.00112   0.01038  -0.00081   0.00955  -3.07643
   D15        1.07614   0.00061   0.00540  -0.00472   0.00075   1.07689
   D16        3.08440   0.00002  -0.01068  -0.00500  -0.01571   3.06869
   D17        1.03269   0.00158  -0.00271   0.01384   0.01089   1.04358
   D18       -1.08838   0.00107  -0.00769   0.00993   0.00209  -1.08629
   D19        0.98945  -0.00274  -0.01078  -0.04104  -0.05164   0.93781
   D20       -1.06226  -0.00118  -0.00281  -0.02219  -0.02504  -1.08730
   D21        3.09986  -0.00169  -0.00779  -0.02611  -0.03384   3.06602
   D22       -2.80464  -0.00689  -0.03484  -0.32216  -0.35703   3.12151
   D23        0.38007  -0.00697  -0.02679  -0.35674  -0.38351  -0.00343
   D24        1.57080   0.00029   0.00000   0.00000  -0.00001   1.57079
   D25       -1.56334   0.00042   0.00139   0.00729   0.00872  -1.55462
   D26       -2.61140  -0.00015   0.00123   0.00026   0.00153  -2.60987
   D27        0.53765  -0.00003   0.00262   0.00755   0.01026   0.54791
   D28       -0.53360   0.00005  -0.00187  -0.00003  -0.00197  -0.53557
   D29        2.61545   0.00017  -0.00048   0.00726   0.00676   2.62221
   D30       -3.13272   0.00016   0.00166   0.00623   0.00786  -3.12486
   D31        0.01043   0.00022   0.00195   0.00855   0.01046   0.02090
   D32        0.00152   0.00005   0.00028  -0.00093  -0.00062   0.00089
   D33       -3.13852   0.00010   0.00057   0.00140   0.00198  -3.13653
   D34        3.13272  -0.00016  -0.00166  -0.00606  -0.00770   3.12502
   D35       -0.01156  -0.00027  -0.00216  -0.01020  -0.01234  -0.02390
   D36       -0.00158  -0.00004  -0.00029   0.00106   0.00074  -0.00083
   D37        3.13732  -0.00015  -0.00080  -0.00308  -0.00389   3.13343
   D38       -0.00090  -0.00002  -0.00017   0.00049   0.00031  -0.00058
   D39       -3.13909   0.00006   0.00047   0.00244   0.00290  -3.13620
   D40        3.13913  -0.00008  -0.00046  -0.00185  -0.00231   3.13681
   D41        0.00093   0.00000   0.00017   0.00010   0.00027   0.00120
   D42        0.00101   0.00001   0.00019  -0.00075  -0.00055   0.00046
   D43        3.13882  -0.00008  -0.00052  -0.00302  -0.00353   3.13529
   D44       -3.13788   0.00012   0.00069   0.00340   0.00410  -3.13378
   D45       -0.00008   0.00003  -0.00001   0.00113   0.00112   0.00105
   D46        0.00031  -0.00001   0.00006  -0.00017  -0.00012   0.00019
   D47       -3.13822   0.00008   0.00063   0.00185   0.00248  -3.13574
   D48        3.13850  -0.00010  -0.00058  -0.00213  -0.00272   3.13578
   D49       -0.00003  -0.00001  -0.00000  -0.00011  -0.00012  -0.00014
   D50       -0.00036   0.00002  -0.00007   0.00030   0.00024  -0.00013
   D51        3.13816  -0.00007  -0.00064  -0.00172  -0.00236   3.13580
   D52       -3.13817   0.00011   0.00064   0.00258   0.00323  -3.13494
   D53        0.00036   0.00002   0.00007   0.00056   0.00063   0.00099
         Item               Value     Threshold  Converged?
 Maximum Force            0.006973     0.000450     NO 
 RMS     Force            0.002024     0.000300     NO 
 Maximum Displacement     0.657143     0.001800     NO 
 RMS     Displacement     0.077762     0.001200     NO 
 Predicted change in Energy=-4.901899D-03
 GradGradGradGradGradGradGradGradGradGradGradGradGradGradGradGradGradGrad

                          Input orientation:                          
 ---------------------------------------------------------------------
 Center     Atomic      Atomic             Coordinates (Angstroms)
 Number     Number       Type             X           Y           Z
 ---------------------------------------------------------------------
      1          6           0       -0.793564    2.216900   -0.026669
      2          1           0       -1.880101    1.993471   -0.060514
      3          7           0        0.050225    1.018927   -0.071556
      4          1           0       -0.204042    0.409536    0.704992
      5          1           0       -0.121330    0.508110   -0.934800
      6          6           0       -0.525509    3.110502   -1.234507
      7          8           0       -0.570508    4.315197   -1.240147
      8          8           0       -0.241833    2.394353   -2.346473
[...]
    13  C    2.155133   2.156689   0.000000
    14  C    2.683767   3.385552   1.402377   0.000000
    15  C    3.388933   2.694196   1.403008   2.408098   0.000000
    16  C    4.057386   4.555736   2.434941   1.395222   2.785850
    17  H    2.477361   3.703424   2.155385   1.088161   3.395672
    18  C    4.555904   4.067947   2.435190   2.784535   1.396318
    19  H    3.708812   2.490254   2.153648   3.393805   1.087365
    20  C    4.826549   4.832033   2.818276   2.419041   2.420074
    21  H    4.749348   5.494129   3.415487   2.152940   3.872827
    22  H    5.496401   4.762685   3.415666   3.871520   2.153317
    23  H    5.892939   5.899051   3.905011   3.404799   3.405978
                   16         17         18         19         20
    16  C    0.000000
    17  H    2.152597   0.000000
    18  C    2.412328   3.872649   0.000000
    19  H    3.873185   4.294270   2.155673   0.000000
    20  C    1.396356   3.402572   1.395733   3.404292   0.000000
    21  H    1.087018   2.473847   3.399570   4.960144   2.157181
    22  H    3.399718   4.959620   1.087025   2.477844   2.156692
    23  H    2.158300   4.300283   2.158047   4.302874   1.086740
                   21         22         23
    21  H    0.000000
    22  H    4.301224   0.000000
    23  H    2.488292   2.488250   0.000000
 Stoichiometry    C9H11NO2
 Framework group  C1[X(C9H11NO2)]
 Deg. of freedom    63
 Full point group                 C1      NOp   1
 Largest Abelian subgroup         C1      NOp   1
 Largest concise Abelian subgroup C1      NOp   1
                         Standard orientation:                         
 ---------------------------------------------------------------------
 Center     Atomic      Atomic             Coordinates (Angstroms)
 Number     Number       Type             X           Y           Z
 ---------------------------------------------------------------------
      1          6           0       -1.375642   -0.099769    0.320518
      2          1           0       -1.167384    0.408514    1.283646
      3          7           0       -1.243449   -1.557355    0.397587
      4          1           0       -0.305544   -1.783426    0.723786
      5          1           0       -1.898244   -1.925521    1.083945
      6          6           0       -2.819357    0.265713   -0.012156
      7          8           0       -3.179035    1.118014   -0.791861
      8          8           0       -3.698175   -0.458663    0.727461
      9          1           0       -4.587660   -0.155246    0.464897
     10          6           0       -0.419151    0.482800   -0.738505
     11          1           0       -0.643911    1.547700   -0.849649
     12          1           0       -0.648388    0.002110   -1.695473
     13          6           0        1.039135    0.285207   -0.382678
     14          6           0        1.729133    1.248362    0.367586
     15          6           0        1.731407   -0.868482   -0.780412
     16          6           0        3.066873    1.063339    0.718106
     17          1           0        1.212780    2.156053    0.673480
     18          6           0        3.070067   -1.057592   -0.431227
     19          1           0        1.214187   -1.619102   -1.373216
     20          6           0        3.742082   -0.092370    0.320313
     21          1           0        3.584001    1.825002    1.296082
     22          1           0        3.589283   -1.956748   -0.753031
     23          1           0        4.785418   -0.235902    0.588364
 ---------------------------------------------------------------------
 Rotational constants (GHZ):           2.5015435           0.4429512           0.4138368

 **********************************************************************

            Population analysis using the SCF Density.

 **********************************************************************

 Orbital symmetries:
       Occupied  (A) (A) (A) (A) (A) (A) (A) (A) (A) (A) (A) (A)
                 (A) (A) (A) (A) (A) (A) (A) (A) (A) (A) (A) (A)
                 (A) (A) (A) (A) (A) (A) (A) (A) (A) (A) (A) (A)
                 (A) (A) (A) (A) (A) (A) (A) (A)
       Virtual   (A) (A) (A) (A) (A) (A) (A) (A) (A) (A) (A) (A)
                 (A) (A) (A) (A) (A) (A) (A) (A) (A) (A) (A) (A)
                 (A) (A) (A) (A) (A) (A) (A) (A) (A) (A) (A) (A)
                 (A) (A) (A) (A) (A) (A) (A) (A) (A) (A) (A) (A)
                 (A) (A) (A) (A) (A) (A) (A) (A) (A) (A) (A) (A)
                 (A) (A) (A) (A) (A) (A) (A) (A) (A) (A) (A) (A)
                 (A) (A) (A) (A) (A) (A) (A) (A) (A) (A) (A) (A)
                 (A) (A) (A) (A) (A) (A) (A) (A) (A) (A) (A) (A)
                 (A) (A) (A) (A) (A) (A) (A) (A) (A) (A) (A) (A)
                 (A) (A) (A) (A) (A) (A) (A) (A) (A) (A) (A) (A)
                 (A) (A) (A) (A) (A) (A) (A) (A) (A) (A) (A) (A)
                 (A) (A) (A) (A) (A) (A) (A) (A) (A) (A) (A) (A)
                 (A) (A) (A) (A) (A) (A) (A) (A) (A) (A) (A) (A)
                 (A) (A)
 The electronic state is 1-A.
 Alpha  occ. eigenvalues --  -19.20175 -19.14414 -14.31831 -10.32284 -10.23420
 Alpha  occ. eigenvalues --  -10.19676 -10.19079 -10.19052 -10.18938 -10.18883
 Alpha  occ. eigenvalues --  -10.18753 -10.18741  -1.10967  -1.01910  -0.89576
 Alpha  occ. eigenvalues --   -0.85268  -0.77673  -0.74313  -0.72695  -0.67040
 Alpha  occ. eigenvalues --   -0.60457  -0.59868  -0.56848  -0.51501  -0.50414
 Alpha  occ. eigenvalues --   -0.49397  -0.48679  -0.46115  -0.45252  -0.44533
 Alpha  occ. eigenvalues --   -0.42281  -0.41804  -0.41113  -0.39067  -0.38295
 Alpha  occ. eigenvalues --   -0.36908  -0.35213  -0.33748  -0.33632  -0.32310
 Alpha  occ. eigenvalues --   -0.28196  -0.25048  -0.24590  -0.23888
 Alpha virt. eigenvalues --   -0.00247  -0.00183   0.00494   0.06875   0.09318
 Alpha virt. eigenvalues --    0.10917   0.12612   0.13297   0.14715   0.15886
 Alpha virt. eigenvalues --    0.16468   0.16693   0.18237   0.19156   0.19556
 Alpha virt. eigenvalues --    0.22270   0.22874   0.25529   0.25977   0.30631
 Alpha virt. eigenvalues --    0.31644   0.33094   0.33814   0.34699   0.38542
 Alpha virt. eigenvalues --    0.46056   0.52394   0.52904   0.54251   0.54937
 Alpha virt. eigenvalues --    0.55353   0.55872   0.57368   0.59367   0.59624
 Alpha virt. eigenvalues --    0.59842   0.60665   0.61232   0.61609   0.62254
 Alpha virt. eigenvalues --    0.65060   0.65857   0.66441   0.69241   0.70715
 Alpha virt. eigenvalues --    0.71913   0.72926   0.75704   0.77678   0.80608
 Alpha virt. eigenvalues --    0.82484   0.83020   0.83796   0.84041   0.84231
 Alpha virt. eigenvalues --    0.85581   0.87348   0.88972   0.90273   0.91251
 Alpha virt. eigenvalues --    0.92503   0.93831   0.94251   0.95745   0.96295
 Alpha virt. eigenvalues --    0.98116   0.99941   1.01651   1.03037   1.07096
 Alpha virt. eigenvalues --    1.10560   1.11441   1.12613   1.13324   1.17056
 Alpha virt. eigenvalues --    1.18122   1.21692   1.25138   1.27620   1.30947
 Alpha virt. eigenvalues --    1.39126   1.39518   1.42720   1.43649   1.45733
 Alpha virt. eigenvalues --    1.48453   1.49267   1.51101   1.51465   1.55775
 Alpha virt. eigenvalues --    1.57644   1.60269   1.66765   1.68917   1.74787
 Alpha virt. eigenvalues --    1.75876   1.78286   1.79736   1.80491   1.81473
 Alpha virt. eigenvalues --    1.83493   1.86399   1.89197   1.91163   1.92709
 Alpha virt. eigenvalues --    1.94644   1.96163   1.97637   1.99279   2.00280
 Alpha virt. eigenvalues --    2.04622   2.05796   2.07712   2.13596   2.14134
 Alpha virt. eigenvalues --    2.15114   2.16290   2.21387   2.22076   2.26289
 Alpha virt. eigenvalues --    2.29789   2.31675   2.34146   2.36600   2.38602
 Alpha virt. eigenvalues --    2.40475   2.43114   2.52013   2.54511   2.57902
 Alpha virt. eigenvalues --    2.58266   2.62187   2.64079   2.65535   2.67799
 Alpha virt. eigenvalues --    2.72635   2.74410   2.75013   2.76621   2.79146
 Alpha virt. eigenvalues --    2.85381   2.93075   2.98873   3.04991   3.11443
 Alpha virt. eigenvalues --    3.40842   3.79552   3.84037   4.09099   4.11904
 Alpha virt. eigenvalues --    4.12840   4.14828   4.24810   4.33698   4.40198
 Alpha virt. eigenvalues --    4.42765   4.62248   4.71007
          Condensed to atoms (all electrons):
               1          2          3          4          5          6
     1  C    5.126647   0.349324   0.280354  -0.029252  -0.026852   0.297335
     2  H    0.349324   0.635939  -0.044112  -0.005115  -0.002591  -0.036679
     3  N    0.280354  -0.044112   6.998942   0.293525   0.301334  -0.036051
     4  H   -0.029252  -0.005115   0.293525   0.441350  -0.026844   0.005103
     5  H   -0.026852  -0.002591   0.301334  -0.026844   0.430831  -0.011101
     6  C    0.297335  -0.036679  -0.036051   0.005103  -0.011101   4.358830
     7  O   -0.080145   0.001098   0.001267  -0.000089   0.000111   0.571234
     8  O   -0.093520  -0.000312  -0.002023   0.000062   0.012053   0.281703
     9  H    0.010960  -0.000539  -0.000316   0.000033  -0.000337  -0.007185
    10  C    0.339379  -0.053947  -0.061955  -0.005918   0.006255  -0.030148
    11  H   -0.032708   0.001104   0.004604  -0.000071  -0.000218  -0.004361
    12  H   -0.036016   0.006522   0.001806  -0.000280  -0.000039  -0.005629
    13  C   -0.034752  -0.003893  -0.007386   0.008455   0.000128   0.004691
    14  C   -0.003560   0.003800  -0.000107   0.000113  -0.000021   0.000055
    15  C   -0.005622   0.000864  -0.000954   0.008275  -0.000037  -0.000086
    16  C   -0.000069  -0.000171   0.000019  -0.000067  -0.000001   0.000003
    17  H    0.000325   0.001059   0.000016  -0.000011  -0.000000  -0.000067
    18  C   -0.000049  -0.000010  -0.000107   0.000199   0.000002   0.000001
    19  H   -0.000157   0.000158   0.003072  -0.000748  -0.000015  -0.000063
    20  C    0.000024  -0.000001   0.000009  -0.000077   0.000000  -0.000000
    21  H   -0.000001   0.000002   0.000000  -0.000000   0.000000  -0.000000
    22  H   -0.000001  -0.000000  -0.000002   0.000003   0.000000  -0.000000
    23  H    0.000000  -0.000000   0.000000  -0.000000  -0.000000   0.000000
               7          8          9         10         11         12
     1  C   -0.080145  -0.093520   0.010960   0.339379  -0.032708  -0.036016
     2  H    0.001098  -0.000312  -0.000539  -0.053947   0.001104   0.006522
     3  N    0.001267  -0.002023  -0.000316  -0.061955   0.004604   0.001806
     4  H   -0.000089   0.000062   0.000033  -0.005918  -0.000071  -0.000280
     5  H    0.000111   0.012053  -0.000337   0.006255  -0.000218  -0.000039
     6  C    0.571234   0.281703  -0.007185  -0.030148  -0.004361  -0.005629
     7  O    8.029508  -0.084091   0.011643   0.002186   0.008068   0.002148
     8  O   -0.084091   8.247252   0.216660   0.002606   0.000161   0.000002
     9  H    0.011643   0.216660   0.357828  -0.000254  -0.000020  -0.000017
    10  C    0.002186   0.002606  -0.000254   5.206798   0.351466   0.356296
    11  H    0.008068   0.000161  -0.000020   0.351466   0.562431  -0.027522
    12  H    0.002148   0.000002  -0.000017   0.356296  -0.027522   0.563718
    13  C    0.000722  -0.000017   0.000001   0.336449  -0.031946  -0.029870
    14  C   -0.000007  -0.000001   0.000000  -0.054853  -0.005580   0.003918
    15  C   -0.000003  -0.000001   0.000000  -0.054366   0.004129  -0.004819
    16  C   -0.000000  -0.000000   0.000000   0.006533   0.000172  -0.000204
    17  H    0.000000   0.000000  -0.000000  -0.009094   0.005179   0.000071
    18  C   -0.000000  -0.000000   0.000000   0.006369  -0.000171   0.000155
    19  H    0.000001   0.000000  -0.000000  -0.008653   0.000061   0.005730
    20  C    0.000000   0.000000  -0.000000   0.000372   0.000008   0.000014
    21  H   -0.000000   0.000000  -0.000000  -0.000175  -0.000007   0.000003
    22  H   -0.000000   0.000000  -0.000000  -0.000171   0.000003  -0.000007
    23  H    0.000000  -0.000000  -0.000000   0.000006  -0.000000  -0.000000
              13         14         15         16         17         18
     1  C   -0.034752  -0.003560  -0.005622  -0.000069   0.000325  -0.000049
     2  H   -0.003893   0.003800   0.000864  -0.000171   0.001059  -0.000010
     3  N   -0.007386  -0.000107  -0.000954   0.000019   0.000016  -0.000107
     4  H    0.008455   0.000113   0.008275  -0.000067  -0.000011   0.000199
     5  H    0.000128  -0.000021  -0.000037  -0.000001  -0.000000   0.000002
     6  C    0.004691   0.000055  -0.000086   0.000003  -0.000067   0.000001
     7  O    0.000722  -0.000007  -0.000003  -0.000000   0.000000  -0.000000
     8  O   -0.000017  -0.000001  -0.000001  -0.000000   0.000000  -0.000000
     9  H    0.000001   0.000000   0.000000   0.000000  -0.000000   0.000000
    10  C    0.336449  -0.054853  -0.054366   0.006533  -0.009094   0.006369
    11  H   -0.031946  -0.005580   0.004129   0.000172   0.005179  -0.000171
    12  H   -0.029870   0.003918  -0.004819  -0.000204   0.000071   0.000155
    13  C    4.685383   0.544854   0.539713  -0.018773  -0.045941  -0.022727
    14  C    0.544854   4.969994  -0.043499   0.522004   0.354463  -0.046238
    15  C    0.539713  -0.043499   4.985178  -0.046604   0.006298   0.515839
    16  C   -0.018773   0.522004  -0.046604   4.869573  -0.045849  -0.026474
    17  H   -0.045941   0.354463   0.006298  -0.045849   0.608709   0.000338
    18  C   -0.022727  -0.046238   0.515839  -0.026474   0.000338   4.878743
    19  H   -0.043548   0.006094   0.355259   0.000333  -0.000174  -0.044772
    20  C   -0.034392  -0.035604  -0.035421   0.549244   0.004841   0.550069
    21  H    0.003750  -0.039575   0.000795   0.356655  -0.005661   0.004613
    22  H    0.003725   0.000818  -0.039435   0.004601   0.000018   0.356767
    23  H    0.000651   0.004727   0.004675  -0.043037  -0.000180  -0.043290
              19         20         21         22         23
     1  C   -0.000157   0.000024  -0.000001  -0.000001   0.000000
     2  H    0.000158  -0.000001   0.000002  -0.000000  -0.000000
     3  N    0.003072   0.000009   0.000000  -0.000002   0.000000
     4  H   -0.000748  -0.000077  -0.000000   0.000003  -0.000000
     5  H   -0.000015   0.000000   0.000000   0.000000  -0.000000
     6  C   -0.000063  -0.000000  -0.000000  -0.000000   0.000000
     7  O    0.000001   0.000000  -0.000000  -0.000000   0.000000
     8  O    0.000000   0.000000   0.000000   0.000000  -0.000000
     9  H   -0.000000  -0.000000  -0.000000  -0.000000  -0.000000
    10  C   -0.008653   0.000372  -0.000175  -0.000171   0.000006
    11  H    0.000061   0.000008  -0.000007   0.000003  -0.000000
    12  H    0.005730   0.000014   0.000003  -0.000007  -0.000000
    13  C   -0.043548  -0.034392   0.003750   0.003725   0.000651
    14  C    0.006094  -0.035604  -0.039575   0.000818   0.004727
    15  C    0.355259  -0.035421   0.000795  -0.039435   0.004675
    16  C    0.000333   0.549244   0.356655   0.004601  -0.043037
    17  H   -0.000174   0.004841  -0.005661   0.000018  -0.000180
    18  C   -0.044772   0.550069   0.004613   0.356767  -0.043290
    19  H    0.586048   0.004658   0.000017  -0.005401  -0.000170
    20  C    0.004658   4.854045  -0.043241  -0.043202   0.359236
    21  H    0.000017  -0.043241   0.598439  -0.000188  -0.005547
    22  H   -0.005401  -0.043202  -0.000188   0.597092  -0.005580
    23  H   -0.000170   0.359236  -0.005547  -0.005580   0.598994
 Mulliken charges:
               1
     1  C   -0.061644
     2  H    0.147498
     3  N   -0.731935
     4  H    0.311356
     5  H    0.317342
     6  C    0.612415
     7  O   -0.463651
     8  O   -0.580534
     9  H    0.411542
    10  C   -0.335181
    11  H    0.165219
    12  H    0.164019
    13  C    0.144723
    14  C   -0.181797
    15  C   -0.190181
    16  C   -0.127888
    17  H    0.125662
    18  C   -0.129257
    19  H    0.142272
    20  C   -0.130580
    21  H    0.130121
    22  H    0.130961
    23  H    0.129516
 Sum of Mulliken charges =  -0.00000
 Mulliken charges with hydrogens summed into heavy atoms:
               1
     1  C    0.085853
     3  N   -0.103237
     6  C    0.612415
     7  O   -0.463651
     8  O   -0.168992
    10  C   -0.005942
    13  C    0.144723
    14  C   -0.056135
    15  C   -0.047909
    16  C    0.002233
    18  C    0.001704
    20  C   -0.001063
 Electronic spatial extent (au):  <R**2>=           2642.9482
 Charge=             -0.0000 electrons
 Dipole moment (field-independent basis, Debye):
    X=              0.3664    Y=             -0.6595    Z=              2.1234  Tot=              2.2534
 Quadrupole moment (field-independent basis, Debye-Ang):
   XX=            -61.0581   YY=            -70.0228   ZZ=            -70.9950
   XY=              1.4952   XZ=             -3.4481   YZ=              2.3045
 Traceless Quadrupole moment (field-independent basis, Debye-Ang):
   XX=              6.3005   YY=             -2.6642   ZZ=             -3.6363
   XY=              1.4952   XZ=             -3.4481   YZ=              2.3045
 Octapole moment (field-independent basis, Debye-Ang**2):
  XXX=            -65.1500  YYY=             -1.6572  ZZZ=              1.8468  XYY=              3.6978
  XXY=            -15.8624  XXZ=             23.8376  XZZ=            -10.7663  YZZ=             -4.1966
  YYZ=              9.0305  XYZ=              2.0032
 Hexadecapole moment (field-independent basis, Debye-Ang**3):
 XXXX=          -2234.0056 YYYY=           -436.5984 ZZZZ=           -236.4610 XXXY=             22.2439
 XXXZ=            -27.1880 YYYX=             -0.5333 YYYZ=             -6.7351 ZZZX=             -4.1782
 ZZZY=             -5.2393 XXYY=           -539.8686 XXZZ=           -517.4617 YYZZ=           -105.8287
 XXYZ=             40.0796 YYXZ=            -14.6197 ZZXY=              7.8164
 N-N= 6.659294038937D+02 E-N=-2.623789544803D+03  KE= 5.496261510627D+02
 Unable to Open any file for archive entry.
 1\1\GINC-CCC103\Scan\RB3LYP\6-31G(d)\C9H11N1O2\ROOT\21-Feb-2025\0\\# o
 pt=modredundant b3lyp/6-31g(d)\\L-(-)-Phenylalanine\\0,1\C,-0.75630217
 43,2.6253479808,0.1150360735\H,-1.0835526344,3.5674373912,0.599508329\
 N,-1.8719052797,1.7505119637,-0.2565347296\H,-2.4212356601,1.549785929
 3,0.5772068487\H,-2.4831847465,2.2331998963,-0.9113186357\C,-0.0130866
 962,3.0679230423,-1.1420713434\O,1.1874333786,3.1366705283,-1.27530498
 07\O,-0.8747020954,3.4436657835,-2.1221278369\H,-0.3219431714,3.722243
 6625,-2.876474217\C,0.2068060207,1.9066162708,1.0802508009\H,1.0818423
 599,2.5469207376,1.2258686012\H,0.5532997533,0.9925170415,0.5865256986
 \C,-0.434925324,1.5785279718,2.4117133187\C,-0.3791561536,2.4895909478
 ,3.4763805036\C,-1.1116238269,0.3655683174,2.6098041338\C,-0.986863873
 6,2.2038186873,4.6993565506\H,0.1529784061,3.4297699685,3.3460353217\C
 ,-1.7215063528,0.0760421935,3.8320647024\H,-1.1532519104,-0.3568826683
 ,1.7982041089\C,-1.6619255045,0.9950353179,4.8808606355\H,-0.927291597
 8,2.9222733881,5.5129182797\H,-2.2372781457,-0.8713914981,3.9661245898
 \H,-2.1317304212,0.7687592565,5.8343203465\\Version=ES64L-G16RevC.02\S
 tate=1-A\HF=-554.7866302,-554.7865737,-554.786239,-554.7857094,-554.78
 50525,-554.7844005,-554.7838291,-554.7833245,-554.782843,-554.7823625,
 -554.7818966,-554.7814575,-554.7810596,-554.7807577,-554.7806916,-554.
 783898,-554.7853361,-554.7862249,-554.7866135\RMSD=5.970e-09,4.589e-09
 ,4.865e-09,6.465e-09,5.975e-09,2.765e-09,9.419e-09,3.616e-09,5.437e-09
 ,4.830e-09,4.111e-09,6.704e-09,4.630e-09,4.308e-09,9.858e-09,7.128e-09
 ,3.004e-09,6.486e-09,3.673e-09\PG=C01 [X(C9H11N1O2)]\\@
 The archive entry for this job was punched.


 IT TAKES GREATER CHARACTER TO CARRY OFF GOOD FORTUNE THAN BAD.
                     FRENCH PROVERB.
 Job cpu time:       0 days  2 hours 27 minutes 37.3 seconds.
 Elapsed time:       0 days  0 hours 21 minutes 50.0 seconds.
 File lengths (MBytes):  RWF=     31 Int=      0 D2E=      0 Chk=      7 Scr=      1
 Normal termination of Gaussian 16 at Fri Feb 21 15:12:13 2025.
