 Entering Gaussian System, Link 0=/apl/gaussian/16c02/g16/._.g16
 Initial command:
 /apl/gaussian/16c02/g16/l1.exe "/lwork/users/ux8/8286990.ccpbs1/gaussian/Gau-2006521.inp" -scrdir="/lwork/users/ux8/8286990.ccpbs1/gaussian/"
 Default CPUs for threads: 0,1,2,3,4,5,6,7
 Default is to use a total of   8 processors:
                                8 via shared-memory
                                1 via Linda
 Entering Link 1 = /apl/gaussian/16c02/g16/l1.exe PID=   2006522.
  
 Copyright (c) 1988-2021, Gaussian, Inc.  All Rights Reserved.
  
 This is part of the Gaussian(R) 16 program.  It is based on
 the Gaussian(R) 09 system (copyright 2009, Gaussian, Inc.),
 the Gaussian(R) 03 system (copyright 2003, Gaussian, Inc.),
 the Gaussian(R) 98 system (copyright 1998, Gaussian, Inc.),
 the Gaussian(R) 94 system (copyright 1995, Gaussian, Inc.),
 the Gaussian 92(TM) system (copyright 1992, Gaussian, Inc.),
 the Gaussian 90(TM) system (copyright 1990, Gaussian, Inc.),
 the Gaussian 88(TM) system (copyright 1988, Gaussian, Inc.),
 the Gaussian 86(TM) system (copyright 1986, Carnegie Mellon
 University), and the Gaussian 82(TM) system (copyright 1983,
 Carnegie Mellon University). Gaussian is a federally registered
 trademark of Gaussian, Inc.
  
 This software contains proprietary and confidential information,
 including trade secrets, belonging to Gaussian, Inc.
  
 This software is provided under written license and may be
 used, copied, transmitted, or stored only in accord with that
 written license.
  
 The following legend is applicable only to US Government
 contracts under FAR:
  
                    RESTRICTED RIGHTS LEGEND
  
 Use, reproduction and disclosure by the US Government is
 subject to restrictions as set forth in subparagraphs (a)
 and (c) of the Commercial Computer Software - Restricted
 Rights clause in FAR 52.227-19.
  
 Gaussian, Inc.
 340 Quinnipiac St., Bldg. 40, Wallingford CT 06492
  
  
 ---------------------------------------------------------------
 Warning -- This program may not be used in any manner that
 competes with the business of Gaussian, Inc. or will provide
 assistance to any competitor of Gaussian, Inc.  The licensee
 of this program is prohibited from giving any competitor of
 Gaussian, Inc. access to this program.  By using this program,
 the user acknowledges that Gaussian, Inc. is engaged in the
 business of creating and licensing software in the field of
 computational chemistry and represents and warrants to the
 licensee that it is not a competitor of Gaussian, Inc. and that
 it will not use this program in any manner prohibited above.
 ---------------------------------------------------------------
  

 Cite this work as:
 Gaussian 16, Revision C.02,
 M. J. Frisch, G. W. Trucks, H. B. Schlegel, G. E. Scuseria, 
 M. A. Robb, J. R. Cheeseman, G. Scalmani, V. Barone, 
 G. A. Petersson, H. Nakatsuji, X. Li, M. Caricato, A. V. Marenich, 
 J. Bloino, B. G. Janesko, R. Gomperts, B. Mennucci, H. P. Hratchian, 
 J. V. Ortiz, A. F. Izmaylov, J. L. Sonnenberg, D. Williams-Young, 
 F. Ding, F. Lipparini, F. Egidi, J. Goings, B. Peng, A. Petrone, 
 T. Henderson, D. Ranasinghe, V. G. Zakrzewski, J. Gao, N. Rega, 
 G. Zheng, W. Liang, M. Hada, M. Ehara, K. Toyota, R. Fukuda, 
 J. Hasegawa, M. Ishida, T. Nakajima, Y. Honda, O. Kitao, H. Nakai, 
 T. Vreven, K. Throssell, J. A. Montgomery, Jr., J. E. Peralta, 
 F. Ogliaro, M. J. Bearpark, J. J. Heyd, E. N. Brothers, K. N. Kudin, 
 V. N. Staroverov, T. A. Keith, R. Kobayashi, J. Normand, 
 K. Raghavachari, A. P. Rendell, J. C. Burant, S. S. Iyengar, 
 J. Tomasi, M. Cossi, J. M. Millam, M. Klene, C. Adamo, R. Cammi, 
 J. W. Ochterski, R. L. Martin, K. Morokuma, O. Farkas, 
 J. B. Foresman, and D. J. Fox, Gaussian, Inc., Wallingford CT, 2019.
 
 ******************************************
 Gaussian 16:  ES64L-G16RevC.02  7-Dec-2021
                21-Feb-2025 
 ******************************************
 %chk=phe_ex.chk
 %mem=9600MB
 SetSPE:  set environment variable "OMP_PROC_BIND" = "true"
 SetSPE:  set environment variable "OMP_PLACES" = "{0},{1},{2},{3},{4},{5},{6},{7}"
 ----------------------------------------------------------
 # td=(singlets, nstates=1) opt=modredundant b3lyp/6-31g(d)
 ----------------------------------------------------------
 1/18=120,19=15,26=3,38=1/1,3;
 2/9=110,12=2,17=6,18=5,40=1/2;
 3/5=1,6=6,7=1,11=9,25=1,30=1,71=1,74=-5/1,2,3,8;
 4//1;
 5/5=2,38=5/2;
 8/6=1,10=2,108=1/1;
 9/15=2,41=1,42=1,48=1,70=2/14;
 10/5=4/2;
 6/7=2,8=2,9=2,10=2/1;
 7/12=6,13=5/1,2,3,16;
 1/18=20,19=15,26=3/3(2);
 2/9=110/2;
 99//99;
 2/9=110/2;
 3/5=1,6=6,7=1,11=9,25=1,30=1,71=1,74=-5/1,2,3,8;
 4/5=5,16=3,69=1/1;
 5/5=2,38=5/2;
 8/6=1,10=2,108=1/1;
 9/15=2,41=1,42=1,48=1,49=4,70=2/14;
 10/5=4/2;
 7/12=6,13=5/1,2,3,16;
 1/18=20,19=15,26=3/3(-8);
 2/9=110/2;
 6/7=2,8=2,9=2,10=2/1;
 99/9=10/99;
 -------------------
 L-(-)-Phenylalanine
 -------------------
 Symbolic Z-matrix:
 Charge =  0 Multiplicity = 1
 C                    -0.89193   2.231    -0.00752 
 H                    -1.9282    1.96449  -0.01218 
 N                    -0.07218   1.0108   -0.00431 
 H                    -0.28119   0.47095   0.8111 
 H                    -0.27398   0.4715   -0.82188 
 C                    -0.57005   3.06236  -1.26324 
 O                    -0.67603   4.3159   -1.23213 
 O                    -0.15074   2.40986  -2.46462 
 H                     0.43099   2.99213  -2.95872 
 C                    -0.58115   3.06152   1.25155 
 H                    -1.17784   3.9497    1.24921 
 H                     0.45511   3.32804   1.25621 
 C                    -0.90303   2.23016   2.50727 
 C                     0.08474   1.4201    3.08348 
 C                    -2.18371   2.28369   3.07376 
 C                    -0.20817   0.66356   4.22619 
 H                     1.06257   1.37923   2.65095 
 C                    -2.47662   1.52715   4.21646 
 H                    -2.9379    2.90219   2.6338 
 C                    -1.48885   0.71709   4.79268 
 H                     0.54601   0.04506   4.66614 
 H                    -3.45445   1.56802   4.64899 
 H                    -1.71249   0.13945   5.66516 
 
 The following ModRedundant input section has been read:
 D       1      10      13      14 S  18 10.000                                
 

 GradGradGradGradGradGradGradGradGradGradGradGradGradGradGradGradGradGrad
 Berny optimization.
 Initialization pass.
                           ----------------------------
                           !    Initial Parameters    !
                           ! (Angstroms and Degrees)  !
 --------------------------                            --------------------------
 ! Name  Definition              Value          Derivative Info.                !
 --------------------------------------------------------------------------------
 ! R1    R(1,2)                  1.07           estimate D2E/DX2                !
 ! R2    R(1,3)                  1.47           estimate D2E/DX2                !
 ! R3    R(1,6)                  1.54           estimate D2E/DX2                !
 ! R4    R(1,10)                 1.54           estimate D2E/DX2                !
 ! R5    R(3,4)                  1.0            estimate D2E/DX2                !
 ! R6    R(3,5)                  1.0            estimate D2E/DX2                !
 ! R7    R(6,7)                  1.2584         estimate D2E/DX2                !
 ! R8    R(6,8)                  1.43           estimate D2E/DX2                !
 ! R9    R(8,9)                  0.96           estimate D2E/DX2                !
 ! R10   R(10,11)                1.07           estimate D2E/DX2                !
 ! R11   R(10,12)                1.07           estimate D2E/DX2                !
 ! R12   R(10,13)                1.54           estimate D2E/DX2                !
 ! R13   R(13,14)                1.4014         estimate D2E/DX2                !
 ! R14   R(13,15)                1.4014         estimate D2E/DX2                !
 ! R15   R(14,16)                1.4014         estimate D2E/DX2                !
 ! R16   R(14,17)                1.07           estimate D2E/DX2                !
 ! R17   R(15,18)                1.4014         estimate D2E/DX2                !
 ! R18   R(15,19)                1.07           estimate D2E/DX2                !
 ! R19   R(16,20)                1.4014         estimate D2E/DX2                !
 ! R20   R(16,21)                1.07           estimate D2E/DX2                !
 ! R21   R(18,20)                1.4014         estimate D2E/DX2                !
 ! R22   R(18,22)                1.07           estimate D2E/DX2                !
 ! R23   R(20,23)                1.07           estimate D2E/DX2                !
 ! A1    A(2,1,3)              109.4712         estimate D2E/DX2                !
 ! A2    A(2,1,6)              109.4712         estimate D2E/DX2                !
 ! A3    A(2,1,10)             109.4712         estimate D2E/DX2                !
 ! A4    A(3,1,6)              109.4712         estimate D2E/DX2                !
 ! A5    A(3,1,10)             109.4712         estimate D2E/DX2                !
 ! A6    A(6,1,10)             109.4712         estimate D2E/DX2                !
 ! A7    A(1,3,4)              109.4712         estimate D2E/DX2                !
 ! A8    A(1,3,5)              109.4712         estimate D2E/DX2                !
 ! A9    A(4,3,5)              109.4712         estimate D2E/DX2                !
 ! A10   A(1,6,7)              120.0            estimate D2E/DX2                !
 ! A11   A(1,6,8)              120.0            estimate D2E/DX2                !
 ! A12   A(7,6,8)              120.0            estimate D2E/DX2                !
 ! A13   A(6,8,9)              109.4712         estimate D2E/DX2                !
 ! A14   A(1,10,11)            109.4712         estimate D2E/DX2                !
 ! A15   A(1,10,12)            109.4712         estimate D2E/DX2                !
 ! A16   A(1,10,13)            109.4712         estimate D2E/DX2                !
 ! A17   A(11,10,12)           109.4712         estimate D2E/DX2                !
 ! A18   A(11,10,13)           109.4712         estimate D2E/DX2                !
 ! A19   A(12,10,13)           109.4712         estimate D2E/DX2                !
 ! A20   A(10,13,14)           120.0            estimate D2E/DX2                !
 ! A21   A(10,13,15)           120.0            estimate D2E/DX2                !
 ! A22   A(14,13,15)           120.0            estimate D2E/DX2                !
 ! A23   A(13,14,16)           120.0            estimate D2E/DX2                !
 ! A24   A(13,14,17)           120.0            estimate D2E/DX2                !
 ! A25   A(16,14,17)           120.0            estimate D2E/DX2                !
 ! A26   A(13,15,18)           120.0            estimate D2E/DX2                !
 ! A27   A(13,15,19)           120.0            estimate D2E/DX2                !
 ! A28   A(18,15,19)           120.0            estimate D2E/DX2                !
 ! A29   A(14,16,20)           120.0            estimate D2E/DX2                !
 ! A30   A(14,16,21)           120.0            estimate D2E/DX2                !
 ! A31   A(20,16,21)           120.0            estimate D2E/DX2                !
 ! A32   A(15,18,20)           120.0            estimate D2E/DX2                !
 ! A33   A(15,18,22)           120.0            estimate D2E/DX2                !
 ! A34   A(20,18,22)           120.0            estimate D2E/DX2                !
 ! A35   A(16,20,18)           120.0            estimate D2E/DX2                !
 ! A36   A(16,20,23)           120.0            estimate D2E/DX2                !
 ! A37   A(18,20,23)           120.0            estimate D2E/DX2                !
 ! D1    D(2,1,3,4)            -60.0            estimate D2E/DX2                !
 ! D2    D(2,1,3,5)             60.0            estimate D2E/DX2                !
 ! D3    D(6,1,3,4)            180.0            estimate D2E/DX2                !
 ! D4    D(6,1,3,5)            -60.0            estimate D2E/DX2                !
 ! D5    D(10,1,3,4)            60.0            estimate D2E/DX2                !
 ! D6    D(10,1,3,5)           180.0            estimate D2E/DX2                !
 ! D7    D(2,1,6,7)             90.0            estimate D2E/DX2                !
 ! D8    D(2,1,6,8)            -90.0            estimate D2E/DX2                !
 ! D9    D(3,1,6,7)           -150.0            estimate D2E/DX2                !
 ! D10   D(3,1,6,8)             30.0            estimate D2E/DX2                !
 ! D11   D(10,1,6,7)           -30.0            estimate D2E/DX2                !
 ! D12   D(10,1,6,8)           150.0            estimate D2E/DX2                !
 ! D13   D(2,1,10,11)          -60.0            estimate D2E/DX2                !
 ! D14   D(2,1,10,12)          180.0            estimate D2E/DX2                !
 ! D15   D(2,1,10,13)           60.0            estimate D2E/DX2                !
 ! D16   D(3,1,10,11)          180.0            estimate D2E/DX2                !
 ! D17   D(3,1,10,12)           60.0            estimate D2E/DX2                !
 ! D18   D(3,1,10,13)          -60.0            estimate D2E/DX2                !
 ! D19   D(6,1,10,11)           60.0            estimate D2E/DX2                !
 ! D20   D(6,1,10,12)          -60.0            estimate D2E/DX2                !
 ! D21   D(6,1,10,13)          180.0            estimate D2E/DX2                !
 ! D22   D(1,6,8,9)           -150.0            estimate D2E/DX2                !
 ! D23   D(7,6,8,9)             30.0            estimate D2E/DX2                !
 ! D24   D(1,10,13,14)          90.0            Scan                            !
 ! D25   D(1,10,13,15)         -90.0            estimate D2E/DX2                !
 ! D26   D(11,10,13,14)       -150.0            estimate D2E/DX2                !
 ! D27   D(11,10,13,15)         30.0            estimate D2E/DX2                !
 ! D28   D(12,10,13,14)        -30.0            estimate D2E/DX2                !
 ! D29   D(12,10,13,15)        150.0            estimate D2E/DX2                !
 ! D30   D(10,13,14,16)       -179.9999         estimate D2E/DX2                !
 ! D31   D(10,13,14,17)         -0.0001         estimate D2E/DX2                !
 ! D32   D(15,13,14,16)          0.0001         estimate D2E/DX2                !
 ! D33   D(15,13,14,17)        179.9999         estimate D2E/DX2                !
 ! D34   D(10,13,15,18)       -179.9999         estimate D2E/DX2                !
 ! D35   D(10,13,15,19)          0.0001         estimate D2E/DX2                !
 ! D36   D(14,13,15,18)          0.0001         estimate D2E/DX2                !
 ! D37   D(14,13,15,19)       -179.9999         estimate D2E/DX2                !
 ! D38   D(13,14,16,20)         -0.0002         estimate D2E/DX2                !
 ! D39   D(13,14,16,21)        179.9999         estimate D2E/DX2                !
 ! D40   D(17,14,16,20)        179.9999         estimate D2E/DX2                !
 ! D41   D(17,14,16,21)          0.0001         estimate D2E/DX2                !
 ! D42   D(13,15,18,20)         -0.0001         estimate D2E/DX2                !
 ! D43   D(13,15,18,22)       -180.0            estimate D2E/DX2                !
 ! D44   D(19,15,18,20)        179.9999         estimate D2E/DX2                !
 ! D45   D(19,15,18,22)          0.0            estimate D2E/DX2                !
 ! D46   D(14,16,20,18)          0.0002         estimate D2E/DX2                !
 ! D47   D(14,16,20,23)       -179.9999         estimate D2E/DX2                !
 ! D48   D(21,16,20,18)       -179.9999         estimate D2E/DX2                !
 ! D49   D(21,16,20,23)          0.0            estimate D2E/DX2                !
 ! D50   D(15,18,20,16)          0.0            estimate D2E/DX2                !
 ! D51   D(15,18,20,23)       -179.9999         estimate D2E/DX2                !
 ! D52   D(22,18,20,16)        179.9998         estimate D2E/DX2                !
 ! D53   D(22,18,20,23)         -0.0001         estimate D2E/DX2                !
 --------------------------------------------------------------------------------
 Trust Radius=3.00D-01 FncErr=1.00D-07 GrdErr=1.00D-06 EigMax=2.50D+02 EigMin=1.00D-04
 Number of optimizations in scan=  19
 Number of steps in this run=    123 maximum allowed number of steps=    138.
 GradGradGradGradGradGradGradGradGradGradGradGradGradGradGradGradGradGrad

                          Input orientation:                          
 ---------------------------------------------------------------------
 Center     Atomic      Atomic             Coordinates (Angstroms)
 Number     Number       Type             X           Y           Z
 ---------------------------------------------------------------------
      1          6           0       -0.891932    2.231000   -0.007518
      2          1           0       -1.928199    1.964487   -0.012180
      3          7           0       -0.072178    1.010798   -0.004306
      4          1           0       -0.281190    0.470953    0.811097
      5          1           0       -0.273983    0.471496   -0.821880
      6          6           0       -0.570053    3.062361   -1.263238
      7          8           0       -0.676026    4.315905   -1.232125
      8          8           0       -0.150742    2.409857   -2.464619
      9          1           0        0.430994    2.992132   -2.958724
     10          6           0       -0.581153    3.061525    1.251547
     11          1           0       -1.177845    3.949699    1.249209
     12          1           0        0.455114    3.328038    1.256209
     13          6           0       -0.903032    2.230164    2.507267
     14          6           0        0.084740    1.420099    3.083482
     15          6           0       -2.183714    2.283690    3.073757
     16          6           0       -0.208171    0.663559    4.226186
     17          1           0        1.062569    1.379229    2.650953
     18          6           0       -2.476623    1.527153    4.216463
     19          1           0       -2.937900    2.902191    2.633803
     20          6           0       -1.488851    0.717088    4.792678
     21          1           0        0.546015    0.045055    4.666138
     22          1           0       -3.454452    1.568021    4.648991
     23          1           0       -1.712495    0.139454    5.665159
 ---------------------------------------------------------------------
                    Distance matrix (angstroms):
                    1          2          3          4          5
     1  C    0.000000
     2  H    1.070000   0.000000
     3  N    1.470000   2.086720   0.000000
     4  H    2.034920   2.370879   1.000000   0.000000
     5  H    2.034920   2.370879   1.000000   1.632993   0.000000
     6  C    1.540000   2.148263   2.457987   3.331921   2.644813
     7  O    2.427572   2.930080   3.577136   4.371991   3.887083
     8  O    2.572683   3.061399   2.831375   3.808764   2.543821
     9  H    3.322510   3.912028   3.592695   4.590762   3.378861
    10  C    1.540000   2.148263   2.457987   2.644813   3.331921
    11  H    2.148263   2.468846   3.380966   3.619061   4.147803
    12  H    2.148263   3.024610   2.690081   2.983823   3.606919
    13  C    2.514809   2.732978   2.912931   2.521607   3.817307
    14  C    3.341516   3.732480   3.118747   2.489682   4.034896
    15  C    3.341516   3.112906   3.943768   3.467743   4.701819
    16  C    4.566032   4.755487   4.246896   3.421295   5.052147
    17  H    3.407794   4.047160   2.910978   2.452697   3.830264
    18  C    4.566034   4.286427   4.884964   4.187123   5.599191
    19  H    3.407794   2.983289   4.330052   4.036246   4.994645
    20  C    5.068543   4.983542   5.010417   4.167975   5.749738
    21  H    5.356221   5.629619   4.809144   3.965728   5.565302
    22  H    5.356223   4.920686   5.779571   5.099272   6.422475
    23  H    6.101405   5.967366   5.965962   5.071532   6.652912
                    6          7          8          9         10
     6  C    0.000000
     7  O    1.258400   0.000000
     8  O    1.430000   2.329803   0.000000
     9  H    1.970203   2.441108   0.960000   0.000000
    10  C    2.514809   2.784079   3.797343   4.330778   0.000000
    11  H    2.732978   2.557918   4.149526   4.605648   1.070000
    12  H    2.732978   2.906401   3.880036   4.228366   1.070000
    13  C    3.875582   4.287762   5.031688   5.677788   1.540000
    14  C    4.692521   5.252516   5.640612   6.252954   2.548270
    15  C    4.692521   4.994361   5.901059   6.612822   2.548270
    16  C    6.001582   6.584199   6.915181   7.579823   3.838989
    17  H    4.562815   5.169630   5.357555   5.871016   2.736837
    18  C    6.001583   6.380157   7.129218   7.879322   3.838989
    19  H    4.562815   4.696814   5.831342   6.529463   2.736837
    20  C    6.558858   7.064731   7.571286   8.303365   4.342800
    21  H    6.745905   7.383972   7.544896   8.175391   4.693509
    22  H    6.745907   7.061023   7.888386   8.660376   4.693509
    23  H    7.606000   8.129547   8.584119   9.332935   5.412800
                   11         12         13         14         15
    11  H    0.000000
    12  H    1.747303   0.000000
    13  C    2.148263   2.148263   0.000000
    14  C    3.370097   2.667646   1.401400   0.000000
    15  C    2.667646   3.370097   1.401400   2.427296   0.000000
    16  C    4.538874   4.044769   2.427296   1.401400   2.802800
    17  H    3.686686   2.472280   2.146700   1.070000   3.396345
    18  C    4.044769   4.538874   2.427296   2.802800   1.401400
    19  H    2.472280   3.686686   2.146700   3.396345   1.070000
    20  C    4.806524   4.806524   2.802800   2.427296   2.427296
    21  H    5.467480   4.734327   3.396345   2.146700   3.872800
    22  H    4.734326   5.467480   3.396345   3.872800   2.146700
    23  H    5.856999   5.856999   3.872800   3.396345   3.396345
                   16         17         18         19         20
    16  C    0.000000
    17  H    2.146700   0.000000
    18  C    2.427296   3.872800   0.000000
    19  H    3.872800   4.280590   2.146700   0.000000
    20  C    1.401400   3.396345   1.401400   3.396345   0.000000
    21  H    1.070000   2.471400   3.396345   4.942800   2.146700
    22  H    3.396345   4.942800   1.070000   2.471400   2.146700
    23  H    2.146700   4.280590   2.146700   4.280590   1.070000
                   21         22         23
    21  H    0.000000
    22  H    4.280590   0.000000
    23  H    2.471400   2.471400   0.000000
 Stoichiometry    C9H11NO2
 Framework group  C1[X(C9H11NO2)]
 Deg. of freedom    63
 Full point group                 C1      NOp   1
 Largest Abelian subgroup         C1      NOp   1
 Largest concise Abelian subgroup C1      NOp   1
                         Standard orientation:                         
 ---------------------------------------------------------------------
 Center     Atomic      Atomic             Coordinates (Angstroms)
 Number     Number       Type             X           Y           Z
 ---------------------------------------------------------------------
      1          6           0       -1.340270    0.010783   -0.397013
      2          1           0       -1.103908   -0.464896   -1.325864
      3          7           0       -1.108276    1.457602   -0.514456
      4          1           0       -0.148230    1.624076   -0.739397
      5          1           0       -1.689604    1.830800   -1.237493
      6          6           0       -2.818741   -0.245586   -0.050605
      7          8           0       -3.140166   -1.256235    0.626777
      8          8           0       -3.826351    0.664820   -0.498692
      9          1           0       -4.554313    0.669784    0.127125
     10          6           0       -0.445026   -0.563941    0.716463
     11          1           0       -0.613893   -1.617068    0.801949
     12          1           0       -0.681388   -0.088262    1.645313
     13          6           0        1.033445   -0.307572    0.370054
     14          6           0        1.659268    0.870960    0.798226
     15          6           0        1.753030   -1.252807   -0.373349
     16          6           0        3.004675    1.104257    0.482992
     17          1           0        1.109848    1.592669    1.365829
     18          6           0        3.098439   -1.019512   -0.688579
     19          1           0        1.275200   -2.152642   -0.700268
     20          6           0        3.724262    0.159020   -0.260408
     21          1           0        3.482504    2.004093    0.809909
     22          1           0        3.647859   -1.741220   -1.256184
     23          1           0        4.751511    0.337147   -0.501094
 ---------------------------------------------------------------------
 Rotational constants (GHZ):           2.5107698           0.4462837           0.4125464
 Standard basis: 6-31G(d) (6D, 7F)
 There are   202 symmetry adapted cartesian basis functions of A   symmetry.
 There are   202 symmetry adapted basis functions of A   symmetry.
   202 basis functions,   380 primitive gaussians,   202 cartesian basis functions
    44 alpha electrons       44 beta electrons
       nuclear repulsion energy       664.2089685154 Hartrees.
 NAtoms=   23 NActive=   23 NUniq=   23 SFac= 1.00D+00 NAtFMM=   60 NAOKFM=F Big=F
 Integral buffers will be    131072 words long.
 Regular integral format.
 Two-electron integral symmetry is turned on.
 One-electron integrals computed using PRISM.
 NBasis=   202 RedAO= T EigKep=  4.82D-04  NBF=   202
 NBsUse=   202 1.00D-06 EigRej= -1.00D+00 NBFU=   202
 ExpMin= 1.61D-01 ExpMax= 5.48D+03 ExpMxC= 8.25D+02 IAcc=3 IRadAn=         5 AccDes= 0.00D+00
 Harris functional with IExCor=  402 and IRadAn=       5 diagonalized for initial guess.
 HarFok:  IExCor=  402 AccDes= 0.00D+00 IRadAn=         5 IDoV= 1 UseB2=F ITyADJ=14
 ICtDFT=  3500011 ScaDFX=  1.000000  1.000000  1.000000  1.000000
 FoFCou: FMM=F IPFlag=           0 FMFlag=      100000 FMFlg1=           0
         NFxFlg=           0 DoJE=T BraDBF=F KetDBF=T FulRan=T
         wScrn=  0.000000 ICntrl=       500 IOpCl=  0 I1Cent=   200000004 NGrid=           0
         NMat0=    1 NMatS0=      1 NMatT0=    0 NMatD0=    1 NMtDS0=    0 NMtDT0=    0
 Petite list used in FoFCou.
 Requested convergence on RMS density matrix=1.00D-08 within 128 cycles.
 Requested convergence on MAX density matrix=1.00D-06.
 Requested convergence on             energy=1.00D-06.
 No special actions if energy rises.
 Integral accuracy reduced to 1.0D-05 until final iterations.
 Initial convergence to 1.0D-05 achieved.  Increase integral accuracy.
 SCF Done:  E(RB3LYP) =  -554.764745450     A.U. after   15 cycles
            NFock= 15  Conv=0.28D-08     -V/T= 2.0095
 DoSCS=F DFT=T ScalE2(SS,OS)=  1.000000  1.000000
 ExpMin= 1.61D-01 ExpMax= 5.48D+03 ExpMxC= 8.25D+02 IAcc=3 IRadAn=         5 AccDes= 0.00D+00
 HarFok:  IExCor=  205 AccDes= 0.00D+00 IRadAn=         5 IDoV=-2 UseB2=F ITyADJ=14
 ICtDFT= 12500011 ScaDFX=  1.000000  1.000000  1.000000  1.000000
 Range of M.O.s used for correlation:    13   202
 NBasis=   202 NAE=    44 NBE=    44 NFC=    12 NFV=     0
 NROrb=    190 NOA=    32 NOB=    32 NVA=   158 NVB=   158
 Orbital symmetries:
       Occupied  (A) (A) (A) (A) (A) (A) (A) (A) (A) (A) (A) (A)
                 (A) (A) (A) (A) (A) (A) (A) (A) (A) (A) (A) (A)
                 (A) (A) (A) (A) (A) (A) (A) (A) (A) (A) (A) (A)
                 (A) (A) (A) (A) (A) (A) (A) (A)
       Virtual   (A) (A) (A) (A) (A) (A) (A) (A) (A) (A) (A) (A)
                 (A) (A) (A) (A) (A) (A) (A) (A) (A) (A) (A) (A)
                 (A) (A) (A) (A) (A) (A) (A) (A) (A) (A) (A) (A)
                 (A) (A) (A) (A) (A) (A) (A) (A) (A) (A) (A) (A)
                 (A) (A) (A) (A) (A) (A) (A) (A) (A) (A) (A) (A)
                 (A) (A) (A) (A) (A) (A) (A) (A) (A) (A) (A) (A)
                 (A) (A) (A) (A) (A) (A) (A) (A) (A) (A) (A) (A)
                 (A) (A) (A) (A) (A) (A) (A) (A) (A) (A) (A) (A)
                 (A) (A) (A) (A) (A) (A) (A) (A) (A) (A) (A) (A)
                 (A) (A) (A) (A) (A) (A) (A) (A) (A) (A) (A) (A)
                 (A) (A) (A) (A) (A) (A) (A) (A) (A) (A) (A) (A)
                 (A) (A) (A) (A) (A) (A) (A) (A) (A) (A) (A) (A)
                 (A) (A) (A) (A) (A) (A) (A) (A) (A) (A) (A) (A)
                 (A) (A)
     4 initial guesses have been made.
 Convergence on wavefunction:    0.000001000000000
 Iteration     1 Dimension     4 NMult     0 NNew      4
 CISAX will form     4 AO SS matrices at one time.
 Iteration     2 Dimension     6 NMult     4 NNew      2
 Iteration     3 Dimension     8 NMult     6 NNew      2
 Iteration     4 Dimension    10 NMult     8 NNew      2
 Iteration     5 Dimension    12 NMult    10 NNew      2
 Iteration     6 Dimension    14 NMult    12 NNew      2
 Iteration     7 Dimension    16 NMult    14 NNew      2
 Iteration     8 Dimension    18 NMult    16 NNew      2
 Iteration     9 Dimension    20 NMult    18 NNew      2
 Iteration    10 Dimension    22 NMult    20 NNew      2
 Iteration    11 Dimension    24 NMult    22 NNew      2
 Iteration    12 Dimension    26 NMult    24 NNew      2
 Iteration    13 Dimension    28 NMult    26 NNew      2
 Iteration    14 Dimension    30 NMult    28 NNew      2
 Iteration    15 Dimension    32 NMult    30 NNew      2
 ***********************************************************************
 Excited states from <AA,BB:AA,BB> singles matrix:
 ***********************************************************************
 
 Ground to excited state transition densities written to RWF  633
 Ground to excited state transition electric dipole moments (Au):
       state          X           Y           Z        Dip. S.      Osc.
         1        -0.0942      0.0131      0.0585      0.0125      0.0015
 Ground to excited state transition velocity dipole moments (Au):
       state          X           Y           Z        Dip. S.      Osc.
         1         0.0094     -0.0008     -0.0183      0.0004      0.0016
 Ground to excited state transition magnetic dipole moments (Au):
       state          X           Y           Z
         1         0.1715      0.3422     -0.1711
 Ground to excited state transition velocity quadrupole moments (Au):
       state          XX          YY          ZZ          XY          XZ          YZ
         1         0.0045     -0.0097      0.0595     -0.0565      0.0747      0.0540
 <0|del|b> * <b|rxdel|0> + <0|del|b> * <b|delr+rdel|0>
 Rotatory Strengths (R) in cgs (10**-40 erg-esu-cm/Gauss)
       state          XX          YY          ZZ    R(velocity)    E-M Angle
         1         7.9767      8.4952      1.5778      6.0166       58.74
 1/2[<0|r|b>*<b|rxdel|0> + (<0|rxdel|b>*<b|r|0>)*]
 Rotatory Strengths (R) in cgs (10**-40 erg-esu-cm/Gauss)
       state          XX          YY          ZZ     R(length)
         1        11.4256     -3.1785      7.0756      5.1076
  1/2[<0|del|b>*<b|r|0> + (<0|r|b>*<b|del|0>)*] (Au)
       state          X           Y           Z        Dip. S.   Osc.(frdel)
         1        -0.0009     -0.0000     -0.0011      0.0020      0.0013

 Excitation energies and oscillator strengths:
 
 Excited State   1:      Singlet-A      4.7645 eV  260.22 nm  f=0.0015  <S**2>=0.000
      41 -> 45         0.32988
      43 -> 45        -0.25688
      44 -> 45         0.55194
 This state for optimization and/or second-order correction.
 Total Energy, E(TD-HF/TD-DFT) =  -554.589651799    
 Copying the excited state density for this state as the 1-particle RhoCI density.
 SavETr:  write IOETrn=   770 NScale= 10 NData=  16 NLR=1 NState=    1 LETran=      28.
          IDoAtm=11111111111111111111111
          Differentiating once with respect to electric field.
                with respect to dipole field.
          Differentiating once with respect to nuclear coordinates.
 Keep R1 ints in memory in canonical form, NReq=218463678.
          There are     1 degrees of freedom in the 1st order CPHF.  IDoFFX=0 NUNeed=     1.
 LinEq1:  Iter=  0 NonCon=     1 RMS=1.23D-02 Max=2.01D-01 NDo=     1
 AX will form     1 AO Fock derivatives at one time.
 LinEq1:  Iter=  1 NonCon=     1 RMS=7.20D-03 Max=2.88D-01 NDo=     1
 LinEq1:  Iter=  2 NonCon=     1 RMS=5.52D-03 Max=1.52D-01 NDo=     1
 LinEq1:  Iter=  3 NonCon=     1 RMS=2.81D-03 Max=4.34D-02 NDo=     1
 LinEq1:  Iter=  4 NonCon=     1 RMS=1.70D-03 Max=4.07D-02 NDo=     1
 LinEq1:  Iter=  5 NonCon=     1 RMS=1.14D-03 Max=3.30D-02 NDo=     1
 LinEq1:  Iter=  6 NonCon=     1 RMS=5.35D-04 Max=1.58D-02 NDo=     1
 LinEq1:  Iter=  7 NonCon=     1 RMS=4.10D-04 Max=1.41D-02 NDo=     1
 LinEq1:  Iter=  8 NonCon=     1 RMS=1.85D-04 Max=4.84D-03 NDo=     1
 LinEq1:  Iter=  9 NonCon=     1 RMS=1.10D-04 Max=2.59D-03 NDo=     1
 LinEq1:  Iter= 10 NonCon=     1 RMS=5.16D-05 Max=1.50D-03 NDo=     1
 LinEq1:  Iter= 11 NonCon=     1 RMS=3.63D-05 Max=9.06D-04 NDo=     1
 LinEq1:  Iter= 12 NonCon=     1 RMS=1.77D-05 Max=2.68D-04 NDo=     1
 LinEq1:  Iter= 13 NonCon=     1 RMS=8.64D-06 Max=1.35D-04 NDo=     1
 LinEq1:  Iter= 14 NonCon=     1 RMS=3.34D-06 Max=7.83D-05 NDo=     1
 LinEq1:  Iter= 15 NonCon=     1 RMS=1.77D-06 Max=3.95D-05 NDo=     1
 LinEq1:  Iter= 16 NonCon=     1 RMS=5.81D-07 Max=8.40D-06 NDo=     1
 LinEq1:  Iter= 17 NonCon=     1 RMS=1.87D-07 Max=2.76D-06 NDo=     1
 LinEq1:  Iter= 18 NonCon=     1 RMS=9.66D-08 Max=1.58D-06 NDo=     1
 LinEq1:  Iter= 19 NonCon=     1 RMS=3.38D-08 Max=8.80D-07 NDo=     1
 LinEq1:  Iter= 20 NonCon=     1 RMS=1.40D-08 Max=2.87D-07 NDo=     1
 LinEq1:  Iter= 21 NonCon=     1 RMS=7.95D-09 Max=1.79D-07 NDo=     1
 LinEq1:  Iter= 22 NonCon=     1 RMS=2.29D-09 Max=4.25D-08 NDo=     1
 LinEq1:  Iter= 23 NonCon=     1 RMS=5.49D-10 Max=9.66D-09 NDo=     1
 LinEq1:  Iter= 24 NonCon=     1 RMS=2.99D-10 Max=9.57D-09 NDo=     1
 LinEq1:  Iter= 25 NonCon=     1 RMS=1.27D-10 Max=1.91D-09 NDo=     1
 LinEq1:  Iter= 26 NonCon=     0 RMS=3.95D-11 Max=5.79D-10 NDo=     1
 Linear equations converged to 1.000D-10 1.000D-09 after    26 iterations.
 End of Minotr F.D. properties file   721 does not exist.
 End of Minotr F.D. properties file   722 does not exist.
 End of Minotr F.D. properties file   788 does not exist.

 **********************************************************************

            Population analysis using the SCF Density.

 **********************************************************************

 Orbital symmetries:
       Occupied  (A) (A) (A) (A) (A) (A) (A) (A) (A) (A) (A) (A)
                 (A) (A) (A) (A) (A) (A) (A) (A) (A) (A) (A) (A)
                 (A) (A) (A) (A) (A) (A) (A) (A) (A) (A) (A) (A)
                 (A) (A) (A) (A) (A) (A) (A) (A)
       Virtual   (A) (A) (A) (A) (A) (A) (A) (A) (A) (A) (A) (A)
                 (A) (A) (A) (A) (A) (A) (A) (A) (A) (A) (A) (A)
                 (A) (A) (A) (A) (A) (A) (A) (A) (A) (A) (A) (A)
                 (A) (A) (A) (A) (A) (A) (A) (A) (A) (A) (A) (A)
                 (A) (A) (A) (A) (A) (A) (A) (A) (A) (A) (A) (A)
                 (A) (A) (A) (A) (A) (A) (A) (A) (A) (A) (A) (A)
                 (A) (A) (A) (A) (A) (A) (A) (A) (A) (A) (A) (A)
                 (A) (A) (A) (A) (A) (A) (A) (A) (A) (A) (A) (A)
                 (A) (A) (A) (A) (A) (A) (A) (A) (A) (A) (A) (A)
                 (A) (A) (A) (A) (A) (A) (A) (A) (A) (A) (A) (A)
                 (A) (A) (A) (A) (A) (A) (A) (A) (A) (A) (A) (A)
                 (A) (A) (A) (A) (A) (A) (A) (A) (A) (A) (A) (A)
                 (A) (A) (A) (A) (A) (A) (A) (A) (A) (A) (A) (A)
                 (A) (A)
 The electronic state is 1-A.
 Alpha  occ. eigenvalues --  -19.19175 -19.14615 -14.31148 -10.33239 -10.23816
 Alpha  occ. eigenvalues --  -10.19946 -10.19246 -10.19214 -10.19058 -10.19046
 Alpha  occ. eigenvalues --  -10.18865 -10.18821  -1.07516  -0.99789  -0.89845
 Alpha  occ. eigenvalues --   -0.85312  -0.77740  -0.74666  -0.72679  -0.66580
 Alpha  occ. eigenvalues --   -0.61002  -0.59808  -0.57520  -0.52010  -0.50487
 Alpha  occ. eigenvalues --   -0.49652  -0.48176  -0.46374  -0.45154  -0.44579
 Alpha  occ. eigenvalues --   -0.42485  -0.41267  -0.40135  -0.39404  -0.37730
 Alpha  occ. eigenvalues --   -0.37026  -0.35502  -0.34458  -0.33718  -0.31168
 Alpha  occ. eigenvalues --   -0.27586  -0.25231  -0.24756  -0.23673
 Alpha virt. eigenvalues --   -0.02012  -0.00609  -0.00263   0.06691   0.09641
 Alpha virt. eigenvalues --    0.11334   0.12914   0.13480   0.15229   0.15769
 Alpha virt. eigenvalues --    0.16693   0.17140   0.18311   0.18570   0.19308
 Alpha virt. eigenvalues --    0.20039   0.22312   0.23942   0.25648   0.30172
 Alpha virt. eigenvalues --    0.31163   0.32478   0.33194   0.34297   0.36779
 Alpha virt. eigenvalues --    0.45674   0.52462   0.52889   0.53840   0.54545
 Alpha virt. eigenvalues --    0.54764   0.56301   0.57478   0.58894   0.59066
 Alpha virt. eigenvalues --    0.59583   0.59760   0.61174   0.61567   0.62234
 Alpha virt. eigenvalues --    0.63759   0.64851   0.65874   0.69583   0.70317
 Alpha virt. eigenvalues --    0.71552   0.73259   0.76025   0.79934   0.80668
 Alpha virt. eigenvalues --    0.83165   0.83552   0.84331   0.84944   0.85232
 Alpha virt. eigenvalues --    0.86183   0.88078   0.89695   0.91703   0.92598
 Alpha virt. eigenvalues --    0.93221   0.93904   0.94726   0.96917   0.97683
 Alpha virt. eigenvalues --    0.99168   1.00768   1.02893   1.03323   1.05753
 Alpha virt. eigenvalues --    1.09768   1.11398   1.13247   1.14142   1.16138
 Alpha virt. eigenvalues --    1.17841   1.18982   1.23826   1.27390   1.30250
 Alpha virt. eigenvalues --    1.37348   1.40721   1.42724   1.43262   1.44864
 Alpha virt. eigenvalues --    1.47634   1.48963   1.50354   1.50794   1.54799
 Alpha virt. eigenvalues --    1.55626   1.59668   1.65675   1.69805   1.71871
 Alpha virt. eigenvalues --    1.74312   1.77895   1.79500   1.79808   1.81491
 Alpha virt. eigenvalues --    1.82916   1.85080   1.89749   1.90401   1.94147
 Alpha virt. eigenvalues --    1.94486   1.96584   1.98802   1.99848   2.01547
 Alpha virt. eigenvalues --    2.03154   2.05464   2.07324   2.11700   2.13902
 Alpha virt. eigenvalues --    2.15110   2.15419   2.20553   2.22761   2.26245
 Alpha virt. eigenvalues --    2.29064   2.30297   2.32862   2.35569   2.38336
 Alpha virt. eigenvalues --    2.39505   2.43055   2.47038   2.53623   2.58083
 Alpha virt. eigenvalues --    2.58279   2.59946   2.60858   2.62459   2.65949
 Alpha virt. eigenvalues --    2.72279   2.73127   2.74155   2.75651   2.76602
 Alpha virt. eigenvalues --    2.79525   2.91638   2.94848   3.02437   3.03906
 Alpha virt. eigenvalues --    3.40526   3.76964   3.83760   4.05136   4.08950
 Alpha virt. eigenvalues --    4.12178   4.14840   4.21455   4.33905   4.35603
 Alpha virt. eigenvalues --    4.42178   4.60947   4.70425
          Condensed to atoms (all electrons):
               1          2          3          4          5          6
     1  C    5.104039   0.366477   0.266969  -0.027537  -0.028752   0.289527
     2  H    0.366477   0.605934  -0.050429  -0.003693  -0.002719  -0.039126
     3  N    0.266969  -0.050429   7.025277   0.291554   0.306524  -0.037671
     4  H   -0.027537  -0.003693   0.291554   0.429681  -0.025418   0.005183
     5  H   -0.028752  -0.002719   0.306524  -0.025418   0.428929  -0.007296
     6  C    0.289527  -0.039126  -0.037671   0.005183  -0.007296   4.446058
     7  O   -0.076742   0.000644   0.001972  -0.000092   0.000070   0.509877
     8  O   -0.073782   0.000700   0.001829   0.000100   0.008063   0.269146
     9  H    0.007297  -0.000136  -0.000501   0.000025  -0.000282  -0.004304
    10  C    0.350933  -0.048572  -0.061892  -0.006671   0.006220  -0.027576
    11  H   -0.029226   0.000143   0.004720  -0.000070  -0.000224  -0.005682
    12  H   -0.034279   0.006384   0.001152  -0.000177  -0.000049  -0.004916
    13  C   -0.038466  -0.005072  -0.010642   0.011380   0.000380   0.004765
    14  C   -0.006648   0.000877  -0.003490   0.010733   0.000059  -0.000179
    15  C   -0.003310   0.004077  -0.000243   0.000117  -0.000031   0.000089
    16  C   -0.000047  -0.000010  -0.000253   0.000350   0.000006   0.000001
    17  H   -0.000138   0.000183   0.004294  -0.001559  -0.000033  -0.000092
    18  C   -0.000055  -0.000175   0.000035  -0.000121  -0.000002   0.000003
    19  H    0.000337   0.001082   0.000018  -0.000015  -0.000000  -0.000071
    20  C    0.000017  -0.000002   0.000019  -0.000116  -0.000000  -0.000000
    21  H   -0.000002  -0.000000  -0.000006   0.000011   0.000000  -0.000000
    22  H   -0.000001   0.000003   0.000000  -0.000000   0.000000  -0.000000
    23  H    0.000000  -0.000000   0.000000  -0.000001  -0.000000   0.000000
               7          8          9         10         11         12
     1  C   -0.076742  -0.073782   0.007297   0.350933  -0.029226  -0.034279
     2  H    0.000644   0.000700  -0.000136  -0.048572   0.000143   0.006384
     3  N    0.001972   0.001829  -0.000501  -0.061892   0.004720   0.001152
     4  H   -0.000092   0.000100   0.000025  -0.006671  -0.000070  -0.000177
     5  H    0.000070   0.008063  -0.000282   0.006220  -0.000224  -0.000049
     6  C    0.509877   0.269146  -0.004304  -0.027576  -0.005682  -0.004916
     7  O    8.079775  -0.072999   0.006366  -0.000640   0.009613   0.001247
     8  O   -0.072999   8.248148   0.224124   0.001480   0.000116   0.000070
     9  H    0.006366   0.224124   0.347179  -0.000236  -0.000010  -0.000018
    10  C   -0.000640   0.001480  -0.000236   5.160354   0.352964   0.361692
    11  H    0.009613   0.000116  -0.000010   0.352964   0.548198  -0.027825
    12  H    0.001247   0.000070  -0.000018   0.361692  -0.027825   0.558154
    13  C    0.000841  -0.000019   0.000000   0.336754  -0.029778  -0.030970
    14  C   -0.000004  -0.000001   0.000000  -0.052888   0.004344  -0.005029
    15  C   -0.000011  -0.000000   0.000000  -0.052210  -0.005831   0.004117
    16  C   -0.000000  -0.000000   0.000000   0.005995  -0.000174   0.000161
    17  H    0.000001   0.000000  -0.000000  -0.008760   0.000098   0.005683
    18  C   -0.000000  -0.000000   0.000000   0.006005   0.000140  -0.000209
    19  H    0.000000   0.000000  -0.000000  -0.009094   0.004908   0.000084
    20  C    0.000000   0.000000  -0.000000   0.000426   0.000007   0.000011
    21  H   -0.000000   0.000000  -0.000000  -0.000173   0.000003  -0.000005
    22  H   -0.000000   0.000000  -0.000000  -0.000173  -0.000006   0.000003
    23  H    0.000000  -0.000000  -0.000000   0.000006  -0.000000  -0.000000
              13         14         15         16         17         18
     1  C   -0.038466  -0.006648  -0.003310  -0.000047  -0.000138  -0.000055
     2  H   -0.005072   0.000877   0.004077  -0.000010   0.000183  -0.000175
     3  N   -0.010642  -0.003490  -0.000243  -0.000253   0.004294   0.000035
     4  H    0.011380   0.010733   0.000117   0.000350  -0.001559  -0.000121
     5  H    0.000380   0.000059  -0.000031   0.000006  -0.000033  -0.000002
     6  C    0.004765  -0.000179   0.000089   0.000001  -0.000092   0.000003
     7  O    0.000841  -0.000004  -0.000011  -0.000000   0.000001  -0.000000
     8  O   -0.000019  -0.000001  -0.000000  -0.000000   0.000000  -0.000000
     9  H    0.000000   0.000000   0.000000   0.000000  -0.000000   0.000000
    10  C    0.336754  -0.052888  -0.052210   0.005995  -0.008760   0.006005
    11  H   -0.029778   0.004344  -0.005831  -0.000174   0.000098   0.000140
    12  H   -0.030970  -0.005029   0.004117   0.000161   0.005683  -0.000209
    13  C    4.728361   0.534123   0.543883  -0.022627  -0.044486  -0.017642
    14  C    0.534123   4.986002  -0.045936   0.513793   0.358548  -0.044939
    15  C    0.543883  -0.045936   4.962920  -0.044194   0.006000   0.520270
    16  C   -0.022627   0.513793  -0.044194   4.879804  -0.045053  -0.024459
    17  H   -0.044486   0.358548   0.006000  -0.045053   0.579611   0.000280
    18  C   -0.017642  -0.044939   0.520270  -0.024459   0.000280   4.869896
    19  H   -0.045800   0.006266   0.357440   0.000290  -0.000164  -0.046552
    20  C   -0.035670  -0.035057  -0.035221   0.548174   0.004707   0.547907
    21  H    0.004024  -0.040914   0.000805   0.358575  -0.005262   0.004737
    22  H    0.004016   0.000789  -0.041016   0.004738   0.000017   0.358579
    23  H    0.000601   0.004910   0.004922  -0.044723  -0.000176  -0.044457
              19         20         21         22         23
     1  C    0.000337   0.000017  -0.000002  -0.000001   0.000000
     2  H    0.001082  -0.000002  -0.000000   0.000003  -0.000000
     3  N    0.000018   0.000019  -0.000006   0.000000   0.000000
     4  H   -0.000015  -0.000116   0.000011  -0.000000  -0.000001
     5  H   -0.000000  -0.000000   0.000000   0.000000  -0.000000
     6  C   -0.000071  -0.000000  -0.000000  -0.000000   0.000000
     7  O    0.000000   0.000000  -0.000000  -0.000000   0.000000
     8  O    0.000000   0.000000   0.000000   0.000000  -0.000000
     9  H   -0.000000  -0.000000  -0.000000  -0.000000  -0.000000
    10  C   -0.009094   0.000426  -0.000173  -0.000173   0.000006
    11  H    0.004908   0.000007   0.000003  -0.000006  -0.000000
    12  H    0.000084   0.000011  -0.000005   0.000003  -0.000000
    13  C   -0.045800  -0.035670   0.004024   0.004016   0.000601
    14  C    0.006266  -0.035057  -0.040914   0.000789   0.004910
    15  C    0.357440  -0.035221   0.000805  -0.041016   0.004922
    16  C    0.000290   0.548174   0.358575   0.004738  -0.044723
    17  H   -0.000164   0.004707  -0.005262   0.000017  -0.000176
    18  C   -0.046552   0.547907   0.004737   0.358579  -0.044457
    19  H    0.602682   0.004845   0.000018  -0.005440  -0.000185
    20  C    0.004845   4.855058  -0.044082  -0.044139   0.361833
    21  H    0.000018  -0.044082   0.595974  -0.000190  -0.005774
    22  H   -0.005440  -0.044139  -0.000190   0.597027  -0.005747
    23  H   -0.000185   0.361833  -0.005774  -0.005747   0.598671
 Mulliken charges:
               1
     1  C   -0.066613
     2  H    0.163429
     3  N   -0.739237
     4  H    0.316336
     5  H    0.314556
     6  C    0.602263
     7  O   -0.459918
     8  O   -0.606974
     9  H    0.420497
    10  C   -0.313944
    11  H    0.173572
    12  H    0.164721
    13  C    0.112044
    14  C   -0.185361
    15  C   -0.176634
    16  C   -0.130346
    17  H    0.146298
    18  C   -0.129240
    19  H    0.129350
    20  C   -0.128719
    21  H    0.132261
    22  H    0.131540
    23  H    0.130119
 Sum of Mulliken charges =  -0.00000
 Mulliken charges with hydrogens summed into heavy atoms:
               1
     1  C    0.096816
     3  N   -0.108345
     6  C    0.602263
     7  O   -0.459918
     8  O   -0.186477
    10  C    0.024350
    13  C    0.112044
    14  C   -0.039063
    15  C   -0.047284
    16  C    0.001915
    18  C    0.002299
    20  C    0.001400
 Electronic spatial extent (au):  <R**2>=           2635.5026
 Charge=             -0.0000 electrons
 Dipole moment (field-independent basis, Debye):
    X=              1.1062    Y=              1.1238    Z=             -1.2543  Tot=              2.0149
 Quadrupole moment (field-independent basis, Debye-Ang):
   XX=            -64.1527   YY=            -70.6059   ZZ=            -69.4113
   XY=             -4.2348   XZ=             -1.1645   YZ=              2.8885
 Traceless Quadrupole moment (field-independent basis, Debye-Ang):
   XX=              3.9039   YY=             -2.5493   ZZ=             -1.3547
   XY=             -4.2348   XZ=             -1.1645   YZ=              2.8885
 Octapole moment (field-independent basis, Debye-Ang**2):
  XXX=            -44.3321  YYY=              2.1379  ZZZ=             -2.4495  XYY=              5.9167
  XXY=             29.4958  XXZ=             -1.2474  XZZ=            -13.6323  YZZ=              4.3769
  YYZ=             -7.1758  XYZ=              0.3097
 Hexadecapole moment (field-independent basis, Debye-Ang**3):
 XXXX=          -2313.9103 YYYY=           -448.2192 ZZZZ=           -218.9001 XXXY=            -90.7177
 XXXZ=            -84.4001 YYYX=             -4.5769 YYYZ=             -2.7243 ZZZX=              1.7230
 ZZZY=             -6.2526 XXYY=           -537.7676 XXZZ=           -506.2360 YYZZ=           -103.6111
 XXYZ=             47.7715 YYXZ=              9.7061 ZZXY=             -7.9373
 N-N= 6.642089685154D+02 E-N=-2.620305401878D+03  KE= 5.495273343043D+02
 Calling FoFJK, ICntrl=  10005127 FMM=F ISym2X=0 I1Cent= 0 IOpClX= 0 NMat=1 NMatS=1 NMatT=0.
 ***** Axes restored to original set *****
 -------------------------------------------------------------------
 Center     Atomic                   Forces (Hartrees/Bohr)
 Number     Number              X              Y              Z
 -------------------------------------------------------------------
      1        6           0.050613340    0.014689929   -0.028327847
      2        1          -0.022103068   -0.011838698    0.003118822
      3        7          -0.037145818    0.019329886   -0.005402701
      4        1           0.011243777   -0.010789816    0.021006857
      5        1           0.007274418   -0.007412422   -0.017706657
      6        6           0.009243344   -0.041776715   -0.008857469
      7        8          -0.004155064    0.048570660    0.001632417
      8        8          -0.017185478   -0.019759069    0.019778692
      9        1           0.007321572    0.012177452    0.000527565
     10        6          -0.016272607   -0.031562326    0.022367107
     11        1          -0.006503032    0.013200387   -0.003406568
     12        1           0.014565185    0.005910183   -0.003208650
     13        6           0.005081148    0.016066477   -0.009771641
     14        6          -0.016353153   -0.003714524    0.012048816
     15        6           0.008960097   -0.014449431    0.011381415
     16        6          -0.011827459    0.007897818   -0.006059071
     17        1           0.011910385    0.000864180   -0.004241562
     18        6           0.014591643   -0.000645537   -0.007841485
     19        1          -0.008132806    0.007882707   -0.004941436
     20        6           0.003606176    0.007810366   -0.012017201
     21        1           0.008624671   -0.006796510    0.005135003
     22        1          -0.010970812    0.000636262    0.004990348
     23        1          -0.002386459   -0.006291260    0.009795248
 -------------------------------------------------------------------
 Cartesian Forces:  Max     0.050613340 RMS     0.015982093

 GradGradGradGradGradGradGradGradGradGradGradGradGradGradGradGradGradGrad
 Berny optimization.
 FormGI is forming the generalized inverse of G from B-inverse, IUseBI=4.
 Internal  Forces:  Max     0.048773754 RMS     0.008389707
 Search for a local minimum.
 Step number   1 out of a maximum of  123 on scan point     1 out of    19
 All quantities printed in internal units (Hartrees-Bohrs-Radians)
 Mixed Optimization -- RFO/linear search
 Second derivative matrix not updated -- first step.
 ITU=  0
     Eigenvalues ---    0.00237   0.00237   0.00501   0.00766   0.00987
     Eigenvalues ---    0.01295   0.02070   0.02070   0.02070   0.02070
     Eigenvalues ---    0.02070   0.02070   0.02070   0.02070   0.03260
     Eigenvalues ---    0.04248   0.04828   0.05056   0.05410   0.06194
     Eigenvalues ---    0.08669   0.11053   0.16000   0.16000   0.16000
     Eigenvalues ---    0.16000   0.16000   0.16000   0.16000   0.16000
     Eigenvalues ---    0.16855   0.17980   0.21983   0.22000   0.22000
     Eigenvalues ---    0.23485   0.25000   0.25000   0.25000   0.28519
     Eigenvalues ---    0.28519   0.28519   0.35740   0.37230   0.37230
     Eigenvalues ---    0.37230   0.37230   0.37230   0.37230   0.37230
     Eigenvalues ---    0.37230   0.40989   0.41268   0.41459   0.45389
     Eigenvalues ---    0.45389   0.45389   0.45389   0.47688   0.47688
     Eigenvalues ---    0.55473   0.802091000.000001000.000001000.00000
     Eigenvalues --- 1000.000001000.000001000.000001000.000001000.00000
     Eigenvalues --- 1000.000001000.000001000.000001000.000001000.00000
     Eigenvalues --- 1000.000001000.000001000.000001000.000001000.00000
     Eigenvalues --- 1000.000001000.000001000.000001000.000001000.00000
     Eigenvalues --- 1000.000001000.000001000.000001000.000001000.00000
     Eigenvalues --- 1000.000001000.000001000.000001000.000001000.00000
     Eigenvalues --- 1000.000001000.000001000.000001000.000001000.00000
     Eigenvalues --- 1000.000001000.000001000.000001000.000001000.00000
     Eigenvalues --- 1000.000001000.000001000.000001000.000001000.00000
     Eigenvalues --- 1000.000001000.000001000.00000
 RFO step:  Lambda=-2.62350756D-02 EMin= 2.36824234D-03
 Linear search not attempted -- first point.
 Iteration  1 RMS(Cart)=  0.05793950 RMS(Int)=  0.00402732
 Iteration  2 RMS(Cart)=  0.00430986 RMS(Int)=  0.00236482
 Iteration  3 RMS(Cart)=  0.00001380 RMS(Int)=  0.00236478
 Iteration  4 RMS(Cart)=  0.00000005 RMS(Int)=  0.00236478
 Iteration  1 RMS(Cart)=  0.00000910 RMS(Int)=  0.00000364
 Iteration  2 RMS(Cart)=  0.00000568 RMS(Int)=  0.00000404
 Iteration  3 RMS(Cart)=  0.00000355 RMS(Int)=  0.00000463
 Iteration  4 RMS(Cart)=  0.00000221 RMS(Int)=  0.00000508
 Iteration  5 RMS(Cart)=  0.00000138 RMS(Int)=  0.00000539
 Iteration  6 RMS(Cart)=  0.00000086 RMS(Int)=  0.00000559
 Variable       Old X    -DE/DX   Delta X   Delta X   Delta X     New X
                                 (Linear)    (Quad)   (Total)
    R1        2.02201   0.02434   0.00000   0.06108   0.06108   2.08308
    R2        2.77790  -0.01133   0.00000  -0.02953  -0.02953   2.74837
    R3        2.91018  -0.01209   0.00000  -0.03882  -0.03882   2.87136
    R4        2.91018   0.00888   0.00000   0.02852   0.02852   2.93870
    R5        1.88973   0.02060   0.00000   0.04095   0.04095   1.93068
    R6        1.88973   0.01701   0.00000   0.03380   0.03380   1.92353
    R7        2.37803   0.04877   0.00000   0.05888   0.05888   2.43691
    R8        2.70231  -0.01649   0.00000  -0.03782  -0.03782   2.66449
    R9        1.81414   0.01155   0.00000   0.01988   0.01988   1.83402
   R10        2.02201   0.01459   0.00000   0.03661   0.03661   2.05862
   R11        2.02201   0.01556   0.00000   0.03905   0.03905   2.06106
   R12        2.91018  -0.00689   0.00000  -0.02212  -0.02212   2.88806
   R13        2.64826   0.00166   0.00000   0.00385   0.00388   2.65214
   R14        2.64826   0.00027   0.00000   0.00084   0.00088   2.64914
   R15        2.64826  -0.00256   0.00000  -0.00523  -0.00523   2.64303
   R16        2.02201   0.01257   0.00000   0.03153   0.03153   2.05354
   R17        2.64826  -0.00408   0.00000  -0.00860  -0.00860   2.63966
   R18        2.02201   0.01232   0.00000   0.03091   0.03091   2.05292
   R19        2.64826  -0.00510   0.00000  -0.01088  -0.01092   2.63734
   R20        2.02201   0.01212   0.00000   0.03041   0.03041   2.05242
   R21        2.64826  -0.00414   0.00000  -0.00901  -0.00904   2.63922
   R22        2.02201   0.01207   0.00000   0.03028   0.03028   2.05229
   R23        2.02201   0.01188   0.00000   0.02981   0.02981   2.05182
    A1        1.91063  -0.00327   0.00000  -0.04599  -0.04573   1.86491
    A2        1.91063   0.00263   0.00000   0.01685   0.01673   1.92736
    A3        1.91063  -0.00420   0.00000  -0.02914  -0.02895   1.88169
    A4        1.91063  -0.00491   0.00000  -0.01356  -0.01484   1.89579
    A5        1.91063   0.00609   0.00000   0.03702   0.03684   1.94748
    A6        1.91063   0.00366   0.00000   0.03481   0.03449   1.94513
    A7        1.91063   0.01650   0.00000   0.12498   0.11360   2.02423
    A8        1.91063   0.00868   0.00000   0.08298   0.07135   1.98199
    A9        1.91063  -0.00070   0.00000   0.06905   0.05238   1.96302
   A10        2.09440   0.01024   0.00000   0.03707   0.03706   2.13145
   A11        2.09440  -0.02148   0.00000  -0.07777  -0.07778   2.01662
   A12        2.09440   0.01124   0.00000   0.04070   0.04069   2.13509
   A13        1.91063  -0.01482   0.00000  -0.07959  -0.07959   1.83104
   A14        1.91063  -0.00643   0.00000  -0.03278  -0.03343   1.87721
   A15        1.91063  -0.00397   0.00000  -0.02278  -0.02386   1.88677
   A16        1.91063   0.01295   0.00000   0.05941   0.05929   1.96993
   A17        1.91063   0.00082   0.00000  -0.01836  -0.01927   1.89136
   A18        1.91063  -0.00195   0.00000   0.00266   0.00322   1.91385
   A19        1.91063  -0.00144   0.00000   0.01185   0.01196   1.92259
   A20        2.09440   0.00512   0.00000   0.01819   0.01799   2.11239
   A21        2.09440   0.00167   0.00000   0.00567   0.00548   2.09988
   A22        2.09440  -0.00679   0.00000  -0.02385  -0.02388   2.07051
   A23        2.09440   0.00304   0.00000   0.01285   0.01288   2.10728
   A24        2.09440  -0.00167   0.00000  -0.00725  -0.00730   2.08709
   A25        2.09440  -0.00137   0.00000  -0.00560  -0.00565   2.08875
   A26        2.09440   0.00302   0.00000   0.01210   0.01216   2.10655
   A27        2.09440  -0.00201   0.00000  -0.00871  -0.00874   2.08565
   A28        2.09440  -0.00102   0.00000  -0.00339  -0.00342   2.09097
   A29        2.09440   0.00045   0.00000   0.00102   0.00100   2.09540
   A30        2.09440  -0.00023   0.00000  -0.00055  -0.00055   2.09385
   A31        2.09440  -0.00022   0.00000  -0.00047  -0.00047   2.09393
   A32        2.09440   0.00122   0.00000   0.00348   0.00347   2.09786
   A33        2.09440  -0.00063   0.00000  -0.00183  -0.00183   2.09257
   A34        2.09440  -0.00059   0.00000  -0.00165  -0.00165   2.09275
   A35        2.09440  -0.00094   0.00000  -0.00560  -0.00565   2.08875
   A36        2.09440   0.00042   0.00000   0.00254   0.00256   2.09696
   A37        2.09440   0.00052   0.00000   0.00306   0.00308   2.09748
    D1       -1.04720  -0.00762   0.00000  -0.12347  -0.12671  -1.17391
    D2        1.04720   0.00694   0.00000   0.08845   0.09250   1.13970
    D3        3.14159  -0.00583   0.00000  -0.10765  -0.11168   3.02991
    D4       -1.04720   0.00873   0.00000   0.10427   0.10754  -0.93966
    D5        1.04720  -0.01103   0.00000  -0.16465  -0.16832   0.87888
    D6        3.14159   0.00353   0.00000   0.04727   0.05090  -3.09070
    D7        1.57080   0.00187   0.00000   0.03443   0.03476   1.60556
    D8       -1.57080   0.00211   0.00000   0.04216   0.04249  -1.52831
    D9       -2.61799  -0.00354   0.00000  -0.01988  -0.01989  -2.63789
   D10        0.52360  -0.00329   0.00000  -0.01215  -0.01217   0.51143
   D11       -0.52360   0.00316   0.00000   0.03847   0.03816  -0.48544
   D12        2.61799   0.00340   0.00000   0.04620   0.04588   2.66388
   D13       -1.04720  -0.00447   0.00000  -0.05865  -0.05798  -1.10518
   D14        3.14159   0.00089   0.00000  -0.00214  -0.00243   3.13916
   D15        1.04720  -0.00286   0.00000  -0.03909  -0.03902   1.00818
   D16        3.14159  -0.00162   0.00000  -0.00716  -0.00624   3.13535
   D17        1.04720   0.00374   0.00000   0.04935   0.04931   1.09651
   D18       -1.04720  -0.00001   0.00000   0.01240   0.01272  -1.03448
   D19        1.04720  -0.00157   0.00000  -0.03454  -0.03457   1.01263
   D20       -1.04720   0.00378   0.00000   0.02197   0.02098  -1.02621
   D21        3.14159   0.00004   0.00000  -0.01497  -0.01560   3.12599
   D22       -2.61799   0.00108   0.00000   0.02688   0.02687  -2.59113
   D23        0.52360   0.00133   0.00000   0.03461   0.03461   0.55821
   D24        1.57080   0.00188   0.00000   0.00000  -0.00000   1.57079
   D25       -1.57080   0.00246   0.00000   0.03056   0.03090  -1.53989
   D26       -2.61799   0.00075   0.00000  -0.00213  -0.00200  -2.61999
   D27        0.52360   0.00133   0.00000   0.02843   0.02891   0.55251
   D28       -0.52360  -0.00031   0.00000  -0.01574  -0.01633  -0.53992
   D29        2.61799   0.00026   0.00000   0.01482   0.01458   2.63257
   D30       -3.14159   0.00075   0.00000   0.02580   0.02577  -3.11583
   D31       -0.00000   0.00129   0.00000   0.03833   0.03826   0.03826
   D32        0.00000   0.00018   0.00000  -0.00476  -0.00463  -0.00463
   D33        3.14159   0.00071   0.00000   0.00777   0.00787  -3.13373
   D34       -3.14159  -0.00079   0.00000  -0.02661  -0.02637   3.11522
   D35        0.00000  -0.00089   0.00000  -0.02985  -0.02961  -0.02961
   D36        0.00000  -0.00022   0.00000   0.00395   0.00380   0.00380
   D37       -3.14159  -0.00032   0.00000   0.00071   0.00056  -3.14103
   D38       -0.00000  -0.00006   0.00000   0.00222   0.00222   0.00221
   D39        3.14159   0.00027   0.00000   0.00800   0.00799  -3.13361
   D40        3.14159  -0.00059   0.00000  -0.01031  -0.01029   3.13130
   D41        0.00000  -0.00027   0.00000  -0.00453  -0.00452  -0.00452
   D42       -0.00000   0.00013   0.00000  -0.00060  -0.00056  -0.00056
   D43       -3.14159  -0.00012   0.00000  -0.00475  -0.00473   3.13686
   D44        3.14159   0.00023   0.00000   0.00263   0.00269  -3.13891
   D45        0.00000  -0.00002   0.00000  -0.00151  -0.00148  -0.00148
   D46        0.00000  -0.00003   0.00000   0.00113   0.00111   0.00111
   D47       -3.14159   0.00020   0.00000   0.00379   0.00378  -3.13781
   D48       -3.14159  -0.00035   0.00000  -0.00465  -0.00466   3.13693
   D49       -0.00000  -0.00012   0.00000  -0.00199  -0.00199  -0.00199
   D50       -0.00000  -0.00001   0.00000  -0.00193  -0.00193  -0.00193
   D51       -3.14159  -0.00024   0.00000  -0.00460  -0.00461   3.13699
   D52        3.14159   0.00024   0.00000   0.00221   0.00224  -3.13936
   D53       -0.00000   0.00001   0.00000  -0.00045  -0.00044  -0.00044
         Item               Value     Threshold  Converged?
 Maximum Force            0.048774     0.000450     NO 
 RMS     Force            0.008422     0.000300     NO 
 Maximum Displacement     0.292744     0.001800     NO 
 RMS     Displacement     0.059823     0.001200     NO 
 Predicted change in Energy=-1.584404D-02
 GradGradGradGradGradGradGradGradGradGradGradGradGradGradGradGradGradGrad

                          Input orientation:                          
 ---------------------------------------------------------------------
 Center     Atomic      Atomic             Coordinates (Angstroms)
 Number     Number       Type             X           Y           Z
 ---------------------------------------------------------------------
      1          6           0       -0.878167    2.254649   -0.038769
      2          1           0       -1.942149    1.967008   -0.021037
      3          7           0       -0.109377    1.022177   -0.110735
      4          1           0       -0.150507    0.420246    0.713763
      5          1           0       -0.248611    0.505795   -0.976794
      6          6           0       -0.574665    3.088513   -1.272181
      7          8           0       -0.637854    4.376481   -1.261720
      8          8           0       -0.229541    2.359822   -2.428886
      9          1           0        0.387918    2.933287   -2.910335
     10          6           0       -0.576293    3.041651    1.268063
     11          1           0       -1.177877    3.949697    1.251203
     12          1           0        0.476437    3.326574    1.256600
     13          6           0       -0.891124    2.239790    2.530438
     14          6           0        0.080918    1.424966    3.131171
     15          6           0       -2.175625    2.277491    3.090668
     16          6           0       -0.222816    0.669972    4.268670
     17          1           0        1.083737    1.389751    2.714040
     18          6           0       -2.480777    1.523284    4.226112
     19          1           0       -2.939057    2.903027    2.636737
     20          6           0       -1.504735    0.718781    4.818270
     21          1           0        0.541126    0.049333    4.727795
     22          1           0       -3.478946    1.565671    4.651915
     23          1           0       -1.741122    0.135987    5.703360
 ---------------------------------------------------------------------
                    Distance matrix (angstroms):
                    1          2          3          4          5
     1  C    0.000000
     2  H    1.102321   0.000000
     3  N    1.454374   2.063930   0.000000
     4  H    2.112067   2.478384   1.021671   0.000000
     5  H    2.081999   2.432424   1.017887   1.695561   0.000000
     6  C    1.519457   2.166368   2.415614   3.353138   2.619923
     7  O    2.460799   3.007664   3.585444   4.448802   3.900628
     8  O    2.478797   2.980783   2.679096   3.693839   2.355069
     9  H    3.210828   3.835486   3.425989   4.442901   3.168038
    10  C    1.555092   2.163840   2.489452   2.712989   3.402547
    11  H    2.151056   2.476643   3.401021   3.715018   4.205706
    12  H    2.159156   3.054560   2.742814   3.022329   3.670223
    13  C    2.569282   2.772921   3.011562   2.675736   3.964875
    14  C    3.414196   3.784577   3.272370   2.628094   4.222421
    15  C    3.387816   3.135860   4.011755   3.633200   4.836997
    16  C    4.636239   4.799999   4.395009   3.564401   5.248096
    17  H    3.489279   4.119449   3.088364   2.542520   4.022286
    18  C    4.614376   4.304101   4.968188   4.356999   5.752224
    19  H    3.438894   2.988932   4.369587   4.199767   5.103217
    20  C    5.132475   5.016800   5.131682   4.332439   5.933462
    21  H    5.440399   5.691708   4.978048   4.090035   5.777056
    22  H    5.407518   4.935513   5.859370   5.282001   6.575770
    23  H    6.181056   6.013465   6.103411   5.244705   6.854838
                    6          7          8          9         10
     6  C    0.000000
     7  O    1.289559   0.000000
     8  O    1.409988   2.365567   0.000000
     9  H    1.906360   2.419287   0.970522   0.000000
    10  C    2.540678   2.861008   3.775256   4.289576   0.000000
    11  H    2.733674   2.605485   4.119478   4.561053   1.089374
    12  H    2.748859   2.947183   3.875025   4.186390   1.090666
    13  C    3.909014   4.360052   5.004697   5.631953   1.528296
    14  C    4.752545   5.340933   5.646642   6.234507   2.552795
    15  C    4.717551   5.070876   5.853161   6.558495   2.542379
    16  C    6.055920   6.670508   6.907452   7.552066   3.841022
    17  H    4.639618   5.262233   5.395871   5.873692   2.752330
    18  C    6.026146   6.453945   7.075087   7.819616   3.831782
    19  H    4.572132   4.760732   5.770362   6.468360   2.734070
    20  C    6.601080   7.148183   7.539257   8.259389   4.343005
    21  H    6.817721   7.482546   7.559786   8.165886   4.708751
    22  H    6.771175   7.137474   7.831158   8.602943   4.696207
    23  H    7.663955   8.228689   8.565263   9.303410   5.428772
                   11         12         13         14         15
    11  H    0.000000
    12  H    1.767786   0.000000
    13  C    2.154635   2.161939   0.000000
    14  C    3.390149   2.699363   1.403454   0.000000
    15  C    2.678695   3.390842   1.401864   2.412556   0.000000
    16  C    4.557834   4.076647   2.435655   1.398633   2.790211
    17  H    3.715928   2.498845   2.157858   1.086685   3.399026
    18  C    4.054025   4.562342   2.432219   2.787623   1.396847
    19  H    2.473252   3.708068   2.155275   3.398437   1.086359
    20  C    4.823859   4.838503   2.814989   2.420598   2.421627
    21  H    5.500410   4.774273   3.417283   2.157167   3.876289
    22  H    4.747983   5.502180   3.413491   3.873640   2.154721
    23  H    5.889256   5.905174   3.900759   3.405503   3.406023
                   16         17         18         19         20
    16  C    0.000000
    17  H    2.154539   0.000000
    18  C    2.414196   3.874268   0.000000
    19  H    3.876559   4.298704   2.154026   0.000000
    20  C    1.395622   3.402672   1.396614   3.404012   0.000000
    21  H    1.086092   2.479185   3.399429   4.962638   2.154506
    22  H    3.398755   4.960280   1.086023   2.478093   2.154623
    23  H    2.156091   4.299742   2.157300   4.300667   1.085777
                   21         22         23
    21  H    0.000000
    22  H    4.297210   0.000000
    23  H    2.483524   2.483861   0.000000
 Stoichiometry    C9H11NO2
 Framework group  C1[X(C9H11NO2)]
 Deg. of freedom    63
 Full point group                 C1      NOp   1
 Largest Abelian subgroup         C1      NOp   1
 Largest concise Abelian subgroup C1      NOp   1
                         Standard orientation:                         
 ---------------------------------------------------------------------
 Center     Atomic      Atomic             Coordinates (Angstroms)
 Number     Number       Type             X           Y           Z
 ---------------------------------------------------------------------
      1          6           0       -1.381424    0.024141   -0.374264
      2          1           0       -1.117800   -0.430533   -1.343224
      3          7           0       -1.208601    1.460666   -0.521683
      4          1           0       -0.248504    1.784942   -0.651572
      5          1           0       -1.854824    1.882181   -1.185621
      6          6           0       -2.835410   -0.257260   -0.034430
      7          8           0       -3.190674   -1.282338    0.662683
      8          8           0       -3.768595    0.670953   -0.540053
      9          1           0       -4.484833    0.686871    0.114670
     10          6           0       -0.422658   -0.559899    0.701829
     11          1           0       -0.610590   -1.631214    0.762688
     12          1           0       -0.677845   -0.111089    1.662559
     13          6           0        1.051102   -0.313946    0.380539
     14          6           0        1.706469    0.842596    0.830637
     15          6           0        1.766165   -1.228462   -0.405317
     16          6           0        3.046962    1.076348    0.507198
     17          1           0        1.169015    1.558293    1.446921
     18          6           0        3.104706   -0.995934   -0.729998
     19          1           0        1.272526   -2.128160   -0.761745
     20          6           0        3.748357    0.156389   -0.273495
     21          1           0        3.544002    1.971938    0.868398
     22          1           0        3.647549   -1.715323   -1.336007
     23          1           0        4.790047    0.334674   -0.522513
 ---------------------------------------------------------------------
 Rotational constants (GHZ):           2.4773952           0.4397910           0.4084450
 Standard basis: 6-31G(d) (6D, 7F)
 There are   202 symmetry adapted cartesian basis functions of A   symmetry.
 There are   202 symmetry adapted basis functions of A   symmetry.
   202 basis functions,   380 primitive gaussians,   202 cartesian basis functions
    44 alpha electrons       44 beta electrons
       nuclear repulsion energy       661.4232250351 Hartrees.
 NAtoms=   23 NActive=   23 NUniq=   23 SFac= 1.00D+00 NAtFMM=   60 NAOKFM=F Big=F
 Integral buffers will be    131072 words long.
 Regular integral format.
 Two-electron integral symmetry is turned on.
 One-electron integrals computed using PRISM.
 NBasis=   202 RedAO= T EigKep=  4.72D-04  NBF=   202
 NBsUse=   202 1.00D-06 EigRej= -1.00D+00 NBFU=   202
 Initial guess from the checkpoint file:  "phe_ex.chk"
 B after Tr=    -0.000000    0.000000   -0.000000
         Rot=    0.999967   -0.008082   -0.001270   -0.000120 Ang=  -0.94 deg.
 ExpMin= 1.61D-01 ExpMax= 5.48D+03 ExpMxC= 8.25D+02 IAcc=3 IRadAn=         5 AccDes= 0.00D+00
 Harris functional with IExCor=  402 and IRadAn=       5 diagonalized for initial guess.
 HarFok:  IExCor=  402 AccDes= 0.00D+00 IRadAn=         5 IDoV= 1 UseB2=F ITyADJ=14
 ICtDFT=  3500011 ScaDFX=  1.000000  1.000000  1.000000  1.000000
 FoFCou: FMM=F IPFlag=           0 FMFlag=      100000 FMFlg1=           0
         NFxFlg=           0 DoJE=T BraDBF=F KetDBF=T FulRan=T
         wScrn=  0.000000 ICntrl=       500 IOpCl=  0 I1Cent=   200000004 NGrid=           0
         NMat0=    1 NMatS0=      1 NMatT0=    0 NMatD0=    1 NMtDS0=    0 NMtDT0=    0
 Petite list used in FoFCou.
 Requested convergence on RMS density matrix=1.00D-08 within 128 cycles.
 Requested convergence on MAX density matrix=1.00D-06.
 Requested convergence on             energy=1.00D-06.
 No special actions if energy rises.
 Integral accuracy reduced to 1.0D-05 until final iterations.
 Initial convergence to 1.0D-05 achieved.  Increase integral accuracy.
 SCF Done:  E(RB3LYP) =  -554.764292857     A.U. after   13 cycles
            NFock= 13  Conv=0.65D-08     -V/T= 2.0101
 DoSCS=F DFT=T ScalE2(SS,OS)=  1.000000  1.000000
 ExpMin= 1.61D-01 ExpMax= 5.48D+03 ExpMxC= 8.25D+02 IAcc=3 IRadAn=         5 AccDes= 0.00D+00
 HarFok:  IExCor=  205 AccDes= 0.00D+00 IRadAn=         5 IDoV=-2 UseB2=F ITyADJ=14
 ICtDFT= 12500011 ScaDFX=  1.000000  1.000000  1.000000  1.000000
 Range of M.O.s used for correlation:    13   202
 NBasis=   202 NAE=    44 NBE=    44 NFC=    12 NFV=     0
 NROrb=    190 NOA=    32 NOB=    32 NVA=   158 NVB=   158
 Orbital symmetries:
       Occupied  (A) (A) (A) (A) (A) (A) (A) (A) (A) (A) (A) (A)
                 (A) (A) (A) (A) (A) (A) (A) (A) (A) (A) (A) (A)
                 (A) (A) (A) (A) (A) (A) (A) (A) (A) (A) (A) (A)
                 (A) (A) (A) (A) (A) (A) (A) (A)
       Virtual   (A) (A) (A) (A) (A) (A) (A) (A) (A) (A) (A) (A)
                 (A) (A) (A) (A) (A) (A) (A) (A) (A) (A) (A) (A)
                 (A) (A) (A) (A) (A) (A) (A) (A) (A) (A) (A) (A)
                 (A) (A) (A) (A) (A) (A) (A) (A) (A) (A) (A) (A)
                 (A) (A) (A) (A) (A) (A) (A) (A) (A) (A) (A) (A)
                 (A) (A) (A) (A) (A) (A) (A) (A) (A) (A) (A) (A)
                 (A) (A) (A) (A) (A) (A) (A) (A) (A) (A) (A) (A)
                 (A) (A) (A) (A) (A) (A) (A) (A) (A) (A) (A) (A)
                 (A) (A) (A) (A) (A) (A) (A) (A) (A) (A) (A) (A)
                 (A) (A) (A) (A) (A) (A) (A) (A) (A) (A) (A) (A)
                 (A) (A) (A) (A) (A) (A) (A) (A) (A) (A) (A) (A)
                 (A) (A) (A) (A) (A) (A) (A) (A) (A) (A) (A) (A)
                 (A) (A) (A) (A) (A) (A) (A) (A) (A) (A) (A) (A)
                 (A) (A)
 Generating guess from densities on rwf.
 Convergence on wavefunction:    0.000001000000000
 Iteration     1 Dimension     2 NMult     0 NNew      2
 CISAX will form     2 AO SS matrices at one time.
 Iteration     2 Dimension     4 NMult     2 NNew      2
 Iteration     3 Dimension     6 NMult     4 NNew      2
 Iteration     4 Dimension     8 NMult     6 NNew      2
 Iteration     5 Dimension    10 NMult     8 NNew      2
 Iteration     6 Dimension    12 NMult    10 NNew      2
 Iteration     7 Dimension    14 NMult    12 NNew      2
 Iteration     8 Dimension    16 NMult    14 NNew      2
 Iteration     9 Dimension    18 NMult    16 NNew      2
 Iteration    10 Dimension    20 NMult    18 NNew      2
 Iteration    11 Dimension    22 NMult    20 NNew      2
 Iteration    12 Dimension    24 NMult    22 NNew      2
 Iteration    13 Dimension    26 NMult    24 NNew      2
 Iteration    14 Dimension    28 NMult    26 NNew      2
 ***********************************************************************
 Excited states from <AA,BB:AA,BB> singles matrix:
 ***********************************************************************
 
 Ground to excited state transition densities written to RWF  633
 Ground to excited state transition electric dipole moments (Au):
       state          X           Y           Z        Dip. S.      Osc.
         1        -0.1778      0.0309      0.0758      0.0383      0.0040
 Ground to excited state transition velocity dipole moments (Au):
       state          X           Y           Z        Dip. S.      Osc.
         1         0.0213     -0.0053     -0.0182      0.0008      0.0035
 Ground to excited state transition magnetic dipole moments (Au):
       state          X           Y           Z
         1         0.1348      0.1196      0.0296
 Ground to excited state transition velocity quadrupole moments (Au):
       state          XX          YY          ZZ          XY          XZ          YZ
         1        -0.0568     -0.0226      0.0714     -0.0486      0.0772      0.0666
 <0|del|b> * <b|rxdel|0> + <0|del|b> * <b|delr+rdel|0>
 Rotatory Strengths (R) in cgs (10**-40 erg-esu-cm/Gauss)
       state          XX          YY          ZZ    R(velocity)    E-M Angle
         1         0.2812      6.5015      0.9443      2.5757       70.91
 1/2[<0|r|b>*<b|rxdel|0> + (<0|rxdel|b>*<b|r|0>)*]
 Rotatory Strengths (R) in cgs (10**-40 erg-esu-cm/Gauss)
       state          XX          YY          ZZ     R(length)
         1        16.9439     -2.6112     -1.5851      4.2492
  1/2[<0|del|b>*<b|r|0> + (<0|r|b>*<b|del|0>)*] (Au)
       state          X           Y           Z        Dip. S.   Osc.(frdel)
         1        -0.0038     -0.0002     -0.0014      0.0053      0.0036

 Excitation energies and oscillator strengths:
 
 Excited State   1:      Singlet-A      4.2480 eV  291.86 nm  f=0.0040  <S**2>=0.000
      41 -> 45         0.13781
      44 -> 45         0.68297
 This state for optimization and/or second-order correction.
 Total Energy, E(TD-HF/TD-DFT) =  -554.608180558    
 Copying the excited state density for this state as the 1-particle RhoCI density.
 SavETr:  write IOETrn=   770 NScale= 10 NData=  16 NLR=1 NState=    1 LETran=      28.
          IDoAtm=11111111111111111111111
          Differentiating once with respect to electric field.
                with respect to dipole field.
          Differentiating once with respect to nuclear coordinates.
 Keep R1 ints in memory in canonical form, NReq=218463678.
          There are     1 degrees of freedom in the 1st order CPHF.  IDoFFX=0 NUNeed=     1.
 LinEq1:  Iter=  0 NonCon=     1 RMS=1.75D-02 Max=2.38D-01 NDo=     1
 AX will form     1 AO Fock derivatives at one time.
 LinEq1:  Iter=  1 NonCon=     1 RMS=6.64D-03 Max=1.39D-01 NDo=     1
 LinEq1:  Iter=  2 NonCon=     1 RMS=5.80D-03 Max=2.45D-01 NDo=     1
 LinEq1:  Iter=  3 NonCon=     1 RMS=3.75D-03 Max=1.03D-01 NDo=     1
 LinEq1:  Iter=  4 NonCon=     1 RMS=2.33D-03 Max=7.30D-02 NDo=     1
 LinEq1:  Iter=  5 NonCon=     1 RMS=1.77D-03 Max=4.64D-02 NDo=     1
 LinEq1:  Iter=  6 NonCon=     1 RMS=7.05D-04 Max=1.72D-02 NDo=     1
 LinEq1:  Iter=  7 NonCon=     1 RMS=4.54D-04 Max=1.25D-02 NDo=     1
 LinEq1:  Iter=  8 NonCon=     1 RMS=2.35D-04 Max=7.31D-03 NDo=     1
 LinEq1:  Iter=  9 NonCon=     1 RMS=1.50D-04 Max=5.17D-03 NDo=     1
 LinEq1:  Iter= 10 NonCon=     1 RMS=8.07D-05 Max=2.82D-03 NDo=     1
 LinEq1:  Iter= 11 NonCon=     1 RMS=5.45D-05 Max=1.37D-03 NDo=     1
 LinEq1:  Iter= 12 NonCon=     1 RMS=2.50D-05 Max=4.52D-04 NDo=     1
 LinEq1:  Iter= 13 NonCon=     1 RMS=1.47D-05 Max=3.69D-04 NDo=     1
 LinEq1:  Iter= 14 NonCon=     1 RMS=5.33D-06 Max=1.73D-04 NDo=     1
 LinEq1:  Iter= 15 NonCon=     1 RMS=2.81D-06 Max=7.54D-05 NDo=     1
 LinEq1:  Iter= 16 NonCon=     1 RMS=1.07D-06 Max=2.38D-05 NDo=     1
 LinEq1:  Iter= 17 NonCon=     1 RMS=3.04D-07 Max=7.80D-06 NDo=     1
 LinEq1:  Iter= 18 NonCon=     1 RMS=1.02D-07 Max=1.84D-06 NDo=     1
 LinEq1:  Iter= 19 NonCon=     1 RMS=6.13D-08 Max=1.19D-06 NDo=     1
 LinEq1:  Iter= 20 NonCon=     1 RMS=1.99D-08 Max=3.99D-07 NDo=     1
 LinEq1:  Iter= 21 NonCon=     1 RMS=8.70D-09 Max=1.35D-07 NDo=     1
 LinEq1:  Iter= 22 NonCon=     1 RMS=3.97D-09 Max=7.96D-08 NDo=     1
 LinEq1:  Iter= 23 NonCon=     1 RMS=9.00D-10 Max=2.32D-08 NDo=     1
 LinEq1:  Iter= 24 NonCon=     1 RMS=3.39D-10 Max=1.16D-08 NDo=     1
 LinEq1:  Iter= 25 NonCon=     1 RMS=1.91D-10 Max=4.05D-09 NDo=     1
 LinEq1:  Iter= 26 NonCon=     0 RMS=5.48D-11 Max=8.94D-10 NDo=     1
 Linear equations converged to 1.000D-10 1.000D-09 after    26 iterations.
[...]
    14  C    2.703754   3.385949   1.403277   0.000000
    15  C    3.412172   2.710691   1.404212   2.408104   0.000000
    16  C    4.080490   4.557386   2.434590   1.394613   2.782975
    17  H    2.488098   3.696944   2.154596   1.087496   3.394880
    18  C    4.585077   4.083621   2.439312   2.787984   1.396899
    19  H    3.731338   2.512418   2.159958   3.397888   1.089580
    20  C    4.854453   4.840860   2.819802   2.420409   2.417943
    21  H    4.770262   5.492731   3.414708   2.151479   3.869582
    22  H    5.525035   4.780069   3.419621   3.874717   2.154854
    23  H    5.921440   5.908074   3.906225   3.405375   3.403989
                   16         17         18         19         20
    16  C    0.000000
    17  H    2.153094   0.000000
    18  C    2.413007   3.875446   0.000000
    19  H    3.871784   4.298364   2.151967   0.000000
    20  C    1.396914   3.404029   1.395342   3.400604   0.000000
    21  H    1.086667   2.474228   3.399278   4.958219   2.156781
    22  H    3.400583   4.962143   1.086840   2.472080   2.156988
    23  H    2.158539   4.301143   2.156956   4.298033   1.086423
                   21         22         23
    21  H    0.000000
    22  H    4.301068   0.000000
    23  H    2.487571   2.488128   0.000000
 Stoichiometry    C9H11NO2
 Framework group  C1[X(C9H11NO2)]
 Deg. of freedom    63
 Full point group                 C1      NOp   1
 Largest Abelian subgroup         C1      NOp   1
 Largest concise Abelian subgroup C1      NOp   1
                         Standard orientation:                         
 ---------------------------------------------------------------------
 Center     Atomic      Atomic             Coordinates (Angstroms)
 Number     Number       Type             X           Y           Z
 ---------------------------------------------------------------------
      1          6           0       -1.421789   -0.054913    0.213373
      2          1           0       -1.174009    0.400192    1.187967
      3          7           0       -1.248050   -1.479138    0.452009
      4          1           0       -0.347955   -1.890082    0.691421
      5          1           0       -2.106313   -2.027286    0.513401
      6          6           0       -2.867271    0.172801   -0.252358
      7          8           0       -3.189230    1.374559   -0.479473
      8          8           0       -3.660345   -0.641462    0.724174
      9          1           0       -4.573179   -0.397226    0.512059
     10          6           0       -0.385727    0.472971   -0.813190
     11          1           0       -0.647821    1.527486   -0.917847
     12          1           0       -0.596259   -0.002987   -1.777746
     13          6           0        1.056498    0.275797   -0.409373
     14          6           0        1.735923    1.256764    0.329053
     15          6           0        1.755852   -0.889391   -0.763001
     16          6           0        3.061850    1.070762    0.719265
     17          1           0        1.216990    2.174109    0.597075
     18          6           0        3.083318   -1.080997   -0.372555
     19          1           0        1.267536   -1.640818   -1.382752
     20          6           0        3.738801   -0.101472    0.374340
     21          1           0        3.569892    1.844935    1.287945
     22          1           0        3.607060   -1.987805   -0.663443
     23          1           0        4.772283   -0.245260    0.676921
 ---------------------------------------------------------------------
 Rotational constants (GHZ):           2.4244586           0.4435758           0.4084399

 **********************************************************************

            Population analysis using the SCF Density.

 **********************************************************************

 Orbital symmetries:
       Occupied  (A) (A) (A) (A) (A) (A) (A) (A) (A) (A) (A) (A)
                 (A) (A) (A) (A) (A) (A) (A) (A) (A) (A) (A) (A)
                 (A) (A) (A) (A) (A) (A) (A) (A) (A) (A) (A) (A)
                 (A) (A) (A) (A) (A) (A) (A) (A)
       Virtual   (A) (A) (A) (A) (A) (A) (A) (A) (A) (A) (A) (A)
                 (A) (A) (A) (A) (A) (A) (A) (A) (A) (A) (A) (A)
                 (A) (A) (A) (A) (A) (A) (A) (A) (A) (A) (A) (A)
                 (A) (A) (A) (A) (A) (A) (A) (A) (A) (A) (A) (A)
                 (A) (A) (A) (A) (A) (A) (A) (A) (A) (A) (A) (A)
                 (A) (A) (A) (A) (A) (A) (A) (A) (A) (A) (A) (A)
                 (A) (A) (A) (A) (A) (A) (A) (A) (A) (A) (A) (A)
                 (A) (A) (A) (A) (A) (A) (A) (A) (A) (A) (A) (A)
                 (A) (A) (A) (A) (A) (A) (A) (A) (A) (A) (A) (A)
                 (A) (A) (A) (A) (A) (A) (A) (A) (A) (A) (A) (A)
                 (A) (A) (A) (A) (A) (A) (A) (A) (A) (A) (A) (A)
                 (A) (A) (A) (A) (A) (A) (A) (A) (A) (A) (A) (A)
                 (A) (A) (A) (A) (A) (A) (A) (A) (A) (A) (A) (A)
                 (A) (A)
 The electronic state is 1-A.
 Alpha  occ. eigenvalues --  -19.19851 -19.17641 -14.29369 -10.34428 -10.23741
 Alpha  occ. eigenvalues --  -10.19661 -10.18966 -10.18934 -10.18824 -10.18756
 Alpha  occ. eigenvalues --  -10.18725 -10.18515  -1.07502  -1.00986  -0.87573
 Alpha  occ. eigenvalues --   -0.84962  -0.77110  -0.74191  -0.71722  -0.66137
 Alpha  occ. eigenvalues --   -0.60286  -0.59003  -0.56425  -0.51466  -0.50447
 Alpha  occ. eigenvalues --   -0.49272  -0.47642  -0.45778  -0.44974  -0.43615
 Alpha  occ. eigenvalues --   -0.41798  -0.41458  -0.40997  -0.39681  -0.38622
 Alpha  occ. eigenvalues --   -0.36053  -0.35131  -0.33920  -0.33571  -0.32148
 Alpha  occ. eigenvalues --   -0.28855  -0.24886  -0.24288  -0.20030
 Alpha virt. eigenvalues --   -0.08687  -0.00121  -0.00068   0.07265   0.09410
 Alpha virt. eigenvalues --    0.11790   0.12980   0.13249   0.14412   0.16043
 Alpha virt. eigenvalues --    0.16118   0.17279   0.17383   0.18947   0.19585
 Alpha virt. eigenvalues --    0.19975   0.22418   0.25503   0.26370   0.29103
 Alpha virt. eigenvalues --    0.30607   0.30879   0.33703   0.34576   0.35203
 Alpha virt. eigenvalues --    0.46297   0.51558   0.53114   0.53407   0.54655
 Alpha virt. eigenvalues --    0.55313   0.56146   0.57125   0.58663   0.59808
 Alpha virt. eigenvalues --    0.60009   0.60320   0.60647   0.61565   0.62597
 Alpha virt. eigenvalues --    0.64273   0.65433   0.66162   0.68226   0.68855
 Alpha virt. eigenvalues --    0.72042   0.74380   0.75620   0.78606   0.81807
 Alpha virt. eigenvalues --    0.82455   0.82987   0.83428   0.83786   0.84256
 Alpha virt. eigenvalues --    0.85040   0.87384   0.89192   0.90528   0.91708
 Alpha virt. eigenvalues --    0.93483   0.94476   0.94829   0.95406   0.97272
 Alpha virt. eigenvalues --    0.98255   1.00099   1.00410   1.02992   1.07985
 Alpha virt. eigenvalues --    1.08575   1.11287   1.11853   1.12614   1.16765
 Alpha virt. eigenvalues --    1.19042   1.21173   1.26012   1.30550   1.33561
 Alpha virt. eigenvalues --    1.36151   1.40903   1.42656   1.43390   1.44959
 Alpha virt. eigenvalues --    1.47692   1.48959   1.49583   1.51199   1.51836
 Alpha virt. eigenvalues --    1.57723   1.60485   1.64016   1.68636   1.71864
 Alpha virt. eigenvalues --    1.74296   1.75617   1.79282   1.81538   1.82634
 Alpha virt. eigenvalues --    1.83283   1.86186   1.87884   1.89034   1.90109
 Alpha virt. eigenvalues --    1.93767   1.93802   1.95031   1.97566   1.98997
 Alpha virt. eigenvalues --    2.05316   2.06624   2.07838   2.11878   2.14223
 Alpha virt. eigenvalues --    2.14361   2.16003   2.17066   2.23378   2.26503
 Alpha virt. eigenvalues --    2.28267   2.30515   2.31067   2.31874   2.36065
 Alpha virt. eigenvalues --    2.38421   2.39990   2.45287   2.47249   2.56080
 Alpha virt. eigenvalues --    2.57404   2.58618   2.61627   2.65674   2.66559
 Alpha virt. eigenvalues --    2.72608   2.73428   2.74908   2.75737   2.77719
 Alpha virt. eigenvalues --    2.84002   2.91030   2.92468   2.97249   3.05158
 Alpha virt. eigenvalues --    3.40763   3.74311   3.78593   3.95441   4.09142
 Alpha virt. eigenvalues --    4.12134   4.14150   4.19577   4.30321   4.33876
 Alpha virt. eigenvalues --    4.41721   4.59030   4.70923
          Condensed to atoms (all electrons):
               1          2          3          4          5          6
     1  C    4.957610   0.387211   0.242325  -0.022755  -0.037867   0.338384
     2  H    0.387211   0.587653  -0.073306   0.000407   0.003459  -0.025783
     3  N    0.242325  -0.073306   7.099724   0.315660   0.321929  -0.028032
     4  H   -0.022755   0.000407   0.315660   0.396903  -0.022214   0.003302
     5  H   -0.037867   0.003459   0.321929  -0.022214   0.388184  -0.008239
     6  C    0.338384  -0.025783  -0.028032   0.003302  -0.008239   4.584719
     7  O   -0.056093  -0.004503   0.002908  -0.000070   0.000364   0.431163
     8  O   -0.073940  -0.001831  -0.012572   0.000218   0.019231   0.215071
     9  H    0.007951  -0.000132   0.000525   0.000015  -0.000645  -0.003440
    10  C    0.335508  -0.058418  -0.061644  -0.004132   0.004038  -0.024871
    11  H   -0.038044   0.001138   0.006938  -0.000039  -0.000172  -0.008111
    12  H   -0.036258   0.006310   0.001440   0.000198   0.000264  -0.003955
    13  C   -0.027833  -0.004959  -0.013389   0.005141   0.000014   0.003275
    14  C   -0.004022   0.003854  -0.000287   0.000045  -0.000004   0.000046
    15  C   -0.005411   0.001023   0.003216   0.008248   0.000029  -0.000017
    16  C   -0.000064  -0.000112   0.000012  -0.000057  -0.000000   0.000002
    17  H    0.000333   0.000857   0.000031  -0.000007   0.000000  -0.000053
    18  C   -0.000025  -0.000005  -0.000062   0.000346   0.000002   0.000002
    19  H   -0.000298   0.000140   0.003307   0.000235   0.000040  -0.000038
    20  C    0.000024  -0.000009   0.000008  -0.000046   0.000000  -0.000000
    21  H   -0.000001   0.000002   0.000000  -0.000000   0.000000  -0.000000
    22  H   -0.000001  -0.000000  -0.000003  -0.000003   0.000000  -0.000000
    23  H    0.000000  -0.000000   0.000000  -0.000000  -0.000000   0.000000
               7          8          9         10         11         12
     1  C   -0.056093  -0.073940   0.007951   0.335508  -0.038044  -0.036258
     2  H   -0.004503  -0.001831  -0.000132  -0.058418   0.001138   0.006310
     3  N    0.002908  -0.012572   0.000525  -0.061644   0.006938   0.001440
     4  H   -0.000070   0.000218   0.000015  -0.004132  -0.000039   0.000198
     5  H    0.000364   0.019231  -0.000645   0.004038  -0.000172   0.000264
     6  C    0.431163   0.215071  -0.003440  -0.024871  -0.008111  -0.003955
     7  O    8.072663  -0.057852   0.006503  -0.003439   0.012169   0.000182
     8  O   -0.057852   8.288058   0.207641   0.002676   0.000151  -0.000008
     9  H    0.006503   0.207641   0.375598  -0.000180  -0.000023  -0.000003
    10  C   -0.003439   0.002676  -0.000180   5.240123   0.334777   0.350333
    11  H    0.012169   0.000151  -0.000023   0.334777   0.585311  -0.029754
    12  H    0.000182  -0.000008  -0.000003   0.350333  -0.029754   0.589973
    13  C    0.000429  -0.000020   0.000002   0.351567  -0.028533  -0.028944
    14  C   -0.000015  -0.000001   0.000000  -0.054627  -0.006376   0.003859
    15  C   -0.000001  -0.000001   0.000000  -0.056572   0.004635  -0.004959
    16  C   -0.000000  -0.000000   0.000000   0.006800   0.000178  -0.000208
    17  H    0.000002   0.000000  -0.000000  -0.009540   0.005234   0.000074
    18  C   -0.000000  -0.000000   0.000000   0.006499  -0.000152   0.000154
    19  H    0.000001   0.000000  -0.000000  -0.008709   0.000120   0.005788
    20  C    0.000000   0.000000  -0.000000   0.000347   0.000007   0.000015
    21  H    0.000000   0.000000  -0.000000  -0.000181  -0.000007   0.000003
    22  H   -0.000000   0.000000  -0.000000  -0.000172   0.000002  -0.000007
    23  H    0.000000  -0.000000  -0.000000   0.000007  -0.000000  -0.000000
              13         14         15         16         17         18
     1  C   -0.027833  -0.004022  -0.005411  -0.000064   0.000333  -0.000025
     2  H   -0.004959   0.003854   0.001023  -0.000112   0.000857  -0.000005
     3  N   -0.013389  -0.000287   0.003216   0.000012   0.000031  -0.000062
     4  H    0.005141   0.000045   0.008248  -0.000057  -0.000007   0.000346
     5  H    0.000014  -0.000004   0.000029  -0.000000   0.000000   0.000002
     6  C    0.003275   0.000046  -0.000017   0.000002  -0.000053   0.000002
     7  O    0.000429  -0.000015  -0.000001  -0.000000   0.000002  -0.000000
     8  O   -0.000020  -0.000001  -0.000001  -0.000000   0.000000  -0.000000
     9  H    0.000002   0.000000   0.000000   0.000000  -0.000000   0.000000
    10  C    0.351567  -0.054627  -0.056572   0.006800  -0.009540   0.006499
    11  H   -0.028533  -0.006376   0.004635   0.000178   0.005234  -0.000152
    12  H   -0.028944   0.003859  -0.004959  -0.000208   0.000074   0.000154
    13  C    4.659110   0.546082   0.533284  -0.019059  -0.044309  -0.022025
    14  C    0.546082   4.973715  -0.044053   0.519506   0.354529  -0.046295
    15  C    0.533284  -0.044053   4.994626  -0.047085   0.006382   0.514246
    16  C   -0.019059   0.519506  -0.047085   4.871571  -0.046064  -0.026493
    17  H   -0.044309   0.354529   0.006382  -0.046064   0.604440   0.000337
    18  C   -0.022025  -0.046295   0.514246  -0.026493   0.000337   4.879540
    19  H   -0.044810   0.006039   0.354401   0.000347  -0.000172  -0.045949
    20  C   -0.034057  -0.035048  -0.035271   0.549238   0.004791   0.549897
    21  H    0.003680  -0.039318   0.000820   0.356660  -0.005609   0.004600
    22  H    0.003669   0.000807  -0.039486   0.004585   0.000017   0.356779
    23  H    0.000669   0.004694   0.004692  -0.042946  -0.000178  -0.043419
              19         20         21         22         23
     1  C   -0.000298   0.000024  -0.000001  -0.000001   0.000000
     2  H    0.000140  -0.000009   0.000002  -0.000000  -0.000000
     3  N    0.003307   0.000008   0.000000  -0.000003   0.000000
     4  H    0.000235  -0.000046  -0.000000  -0.000003  -0.000000
     5  H    0.000040   0.000000   0.000000   0.000000  -0.000000
     6  C   -0.000038  -0.000000  -0.000000  -0.000000   0.000000
     7  O    0.000001   0.000000   0.000000  -0.000000   0.000000
     8  O    0.000000   0.000000   0.000000   0.000000  -0.000000
     9  H   -0.000000  -0.000000  -0.000000  -0.000000  -0.000000
    10  C   -0.008709   0.000347  -0.000181  -0.000172   0.000007
    11  H    0.000120   0.000007  -0.000007   0.000002  -0.000000
    12  H    0.005788   0.000015   0.000003  -0.000007  -0.000000
    13  C   -0.044810  -0.034057   0.003680   0.003669   0.000669
    14  C    0.006039  -0.035048  -0.039318   0.000807   0.004694
    15  C    0.354401  -0.035271   0.000820  -0.039486   0.004692
    16  C    0.000347   0.549238   0.356660   0.004585  -0.042946
    17  H   -0.000172   0.004791  -0.005609   0.000017  -0.000178
    18  C   -0.045949   0.549897   0.004600   0.356779  -0.043419
    19  H    0.597533   0.004796   0.000017  -0.005593  -0.000177
    20  C    0.004796   4.853389  -0.043292  -0.043050   0.358990
    21  H    0.000017  -0.043292   0.598120  -0.000189  -0.005570
    22  H   -0.005593  -0.043050  -0.000189   0.598185  -0.005559
    23  H   -0.000177   0.358990  -0.005570  -0.005559   0.599720
 Mulliken charges:
               1
     1  C    0.033264
     2  H    0.177005
     3  N   -0.808728
     4  H    0.318609
     5  H    0.331587
     6  C    0.526575
     7  O   -0.404412
     8  O   -0.586821
     9  H    0.406188
    10  C   -0.350193
    11  H    0.160550
    12  H    0.145506
    13  C    0.161015
    14  C   -0.183130
    15  C   -0.192747
    16  C   -0.126813
    17  H    0.128905
    18  C   -0.127978
    19  H    0.132982
    20  C   -0.130728
    21  H    0.130266
    22  H    0.130019
    23  H    0.129079
 Sum of Mulliken charges =  -0.00000
 Mulliken charges with hydrogens summed into heavy atoms:
               1
     1  C    0.210269
     3  N   -0.158531
     6  C    0.526575
     7  O   -0.404412
     8  O   -0.180634
    10  C   -0.044137
    13  C    0.161015
    14  C   -0.054225
    15  C   -0.059765
    16  C    0.003453
    18  C    0.002041
    20  C   -0.001649
 Electronic spatial extent (au):  <R**2>=           2662.6044
 Charge=             -0.0000 electrons
 Dipole moment (field-independent basis, Debye):
    X=             -0.0446    Y=             -1.3271    Z=              0.1969  Tot=              1.3424
 Quadrupole moment (field-independent basis, Debye-Ang):
   XX=            -59.6232   YY=            -69.3351   ZZ=            -71.8129
   XY=              3.9847   XZ=              1.7928   YZ=              3.5594
 Traceless Quadrupole moment (field-independent basis, Debye-Ang):
   XX=              7.3005   YY=             -2.4114   ZZ=             -4.8892
   XY=              3.9847   XZ=              1.7928   YZ=              3.5594
 Octapole moment (field-independent basis, Debye-Ang**2):
  XXX=            -68.5842  YYY=             -8.9022  ZZZ=              0.1186  XYY=              4.2254
  XXY=            -25.7251  XXZ=             12.6520  XZZ=            -11.4926  YZZ=              0.0037
  YYZ=              5.6789  XYZ=              0.7905
 Hexadecapole moment (field-independent basis, Debye-Ang**3):
 XXXX=          -2260.1412 YYYY=           -447.3204 ZZZZ=           -227.2545 XXXY=             61.6979
 XXXZ=              5.6034 YYYX=             14.2480 YYYZ=              0.2126 ZZZX=             -1.5960
 ZZZY=             -0.2358 XXYY=           -548.4024 XXZZ=           -509.2485 YYZZ=           -114.1590
 XXYZ=             35.5540 YYXZ=             -7.4339 ZZXY=             -0.0346
 N-N= 6.614108032187D+02 E-N=-2.614577585776D+03  KE= 5.492153709558D+02
 Unable to Open any file for archive entry.
 1\1\GINC-CCC051\Scan\RB3LYP TD-FC\6-31G(d)\C9H11N1O2\ROOT\21-Feb-2025\
 0\\# td=(singlets, nstates=1) opt=modredundant b3lyp/6-31g(d)\\L-(-)-P
 henylalanine\\0,1\C,-0.642430579,2.6324031884,0.0962841964\H,-1.031621
 1377,3.5327535617,0.6024930325\N,-1.8443763209,1.8768052161,-0.2198569
 84\H,-2.4638291939,1.5049460829,0.4973351025\H,-2.1161829463,1.8653285
 449,-1.2031371001\C,0.1022121853,2.906634475,-1.2184342038\O,1.1662205
 658,3.5827472968,-1.11734856\O,-0.9946157095,3.37099945,-2.1277960331\
 H,-0.5093414007,3.6647262207,-2.9127442327\C,0.2414094227,1.8776769462
 ,1.1234808936\H,1.1066851247,2.532531686,1.2422744607\H,0.6021565206,0
 .9596793514,0.6456006391\C,-0.4387638398,1.578544258,2.4387166505\C,-0
 .3741737853,2.4896630395,3.5040230165\C,-1.1497222334,0.383164952,2.63
 21548451\C,-1.0157866473,2.2254288923,4.7137582391\H,0.186832972,3.412
 9753794,3.3798720711\C,-1.795739836,0.115170782,3.8413564637\H,-1.1681
 533194,-0.3642361665,1.8395406022\C,-1.733553096,1.039310796,4.8849451
 58\H,-0.9500244896,2.9434942486,5.5267180457\H,-2.3345660028,-0.819750
 152,3.9710112125\H,-2.2317419037,0.8329540605,5.8280995844\\Version=ES
 64L-G16RevC.02\State=1-A\HF=-554.7145557,-554.7144673,-554.7138857,-55
 4.713108,-554.712259,-554.7115257,-554.7109354,-554.7104151,-554.70986
 13,-554.7092983,-554.7087035,-554.7081598,-554.7077335,-554.7076648,-5
 54.7099864,-554.7115129,-554.712878,-554.7139601,-554.7145302\RMSD=2.9
 95e-09,2.779e-09,6.957e-09,3.082e-09,8.444e-09,7.878e-09,9.576e-09,3.2
 48e-09,9.035e-09,9.581e-09,3.680e-09,6.287e-09,3.416e-09,2.163e-09,4.2
 94e-09,6.897e-09,4.205e-09,7.948e-09,5.767e-09\PG=C01 [X(C9H11N1O2)]\\
 @
 The archive entry for this job was punched.


 EVERY WORD THAT YOU WRITE IS A BLOW THAT SMITES THE DEVIL.
     -- ST. BERNARD OF CLAIRVAUX
 Job cpu time:       1 days 12 hours 39 minutes  8.4 seconds.
 Elapsed time:       0 days  4 hours 50 minutes  0.5 seconds.
 File lengths (MBytes):  RWF=    247 Int=      0 D2E=      0 Chk=     10 Scr=      1
 Normal termination of Gaussian 16 at Fri Feb 21 19:51:18 2025.
